# vtk DataFile Version 2.0
Temperatura
ASCII

DATASET STRUCTURED_GRID
DIMENSIONS   61   131   11

POINTS   87901   double
0   0   0
0.000206774   0   0
0.000409481   0   0
0.000604366   0   0
0.000788253   0   0
0.000958722   0   0
0.00111418   0   0
0.00125384   0   0
0.00137763   0   0
0.00148605   0   0
0.00158003   0   0
0.00166074   0   0
0.00172952   0   0
0.00178776   0   0
0.00183678   0   0
0.00187785   0   0
0.00191212   0   0
0.00194063   0   0
0.00196427   0   0
0.00198384   0   0
0.002   0   0
0.00220474   0   0
0.00239413   0   0
0.00255709   0   0
0.00268882   0   0
0.00279001   0   0
0.00286476   0   0
0.00291839   0   0
0.00295606   0   0
0.00298214   0   0
0.003   0   0
0.00320716   0   0
0.00341248   0   0
0.00361422   0   0
0.00381073   0   0
0.00400053   0   0
0.00418238   0   0
0.00435526   0   0
0.0045184   0   0
0.00467127   0   0
0.00481359   0   0
0.00494528   0   0
0.00506645   0   0
0.00517735   0   0
0.00527839   0   0
0.00537004   0   0
0.00545284   0   0
0.00552739   0   0
0.00559429   0   0
0.00565415   0   0
0.00570758   0   0
0.00575516   0   0
0.00579745   0   0
0.00583496   0   0
0.00586818   0   0
0.00589756   0   0
0.00592351   0   0
0.00594641   0   0
0.00596659   0   0
0.00598436   0   0
0.006   0   0
0   0.000207156   0
0.000206774   0.000207156   0
0.000409481   0.000207156   0
0.000604366   0.000207156   0
0.000788253   0.000207156   0
0.000958722   0.000207156   0
0.00111418   0.000207156   0
0.00125384   0.000207156   0
0.00137763   0.000207156   0
0.00148605   0.000207156   0
0.00158003   0.000207156   0
0.00166074   0.000207156   0
0.00172952   0.000207156   0
0.00178776   0.000207156   0
0.00183678   0.000207156   0
0.00187785   0.000207156   0
0.00191212   0.000207156   0
0.00194063   0.000207156   0
0.00196427   0.000207156   0
0.00198384   0.000207156   0
0.002   0.000207156   0
0.00220474   0.000207156   0
0.00239413   0.000207156   0
0.00255709   0.000207156   0
0.00268882   0.000207156   0
0.00279001   0.000207156   0
0.00286476   0.000207156   0
0.00291839   0.000207156   0
0.00295606   0.000207156   0
0.00298214   0.000207156   0
0.003   0.000207156   0
0.00320716   0.000207156   0
0.00341248   0.000207156   0
0.00361422   0.000207156   0
0.00381073   0.000207156   0
0.00400053   0.000207156   0
0.00418238   0.000207156   0
0.00435526   0.000207156   0
0.0045184   0.000207156   0
0.00467127   0.000207156   0
0.00481359   0.000207156   0
0.00494528   0.000207156   0
0.00506645   0.000207156   0
0.00517735   0.000207156   0
0.00527839   0.000207156   0
0.00537004   0.000207156   0
0.00545284   0.000207156   0
0.00552739   0.000207156   0
0.00559429   0.000207156   0
0.00565415   0.000207156   0
0.00570758   0.000207156   0
0.00575516   0.000207156   0
0.00579745   0.000207156   0
0.00583496   0.000207156   0
0.00586818   0.000207156   0
0.00589756   0.000207156   0
0.00592351   0.000207156   0
0.00594641   0.000207156   0
0.00596659   0.000207156   0
0.00598436   0.000207156   0
0.006   0.000207156   0
0   0.000412484   0
0.000206774   0.000412484   0
0.000409481   0.000412484   0
0.000604366   0.000412484   0
0.000788253   0.000412484   0
0.000958722   0.000412484   0
0.00111418   0.000412484   0
0.00125384   0.000412484   0
0.00137763   0.000412484   0
0.00148605   0.000412484   0
0.00158003   0.000412484   0
0.00166074   0.000412484   0
0.00172952   0.000412484   0
0.00178776   0.000412484   0
0.00183678   0.000412484   0
0.00187785   0.000412484   0
0.00191212   0.000412484   0
0.00194063   0.000412484   0
0.00196427   0.000412484   0
0.00198384   0.000412484   0
0.002   0.000412484   0
0.00220474   0.000412484   0
0.00239413   0.000412484   0
0.00255709   0.000412484   0
0.00268882   0.000412484   0
0.00279001   0.000412484   0
0.00286476   0.000412484   0
0.00291839   0.000412484   0
0.00295606   0.000412484   0
0.00298214   0.000412484   0
0.003   0.000412484   0
0.00320716   0.000412484   0
0.00341248   0.000412484   0
0.00361422   0.000412484   0
0.00381073   0.000412484   0
0.00400053   0.000412484   0
0.00418238   0.000412484   0
0.00435526   0.000412484   0
0.0045184   0.000412484   0
0.00467127   0.000412484   0
0.00481359   0.000412484   0
0.00494528   0.000412484   0
0.00506645   0.000412484   0
0.00517735   0.000412484   0
0.00527839   0.000412484   0
0.00537004   0.000412484   0
0.00545284   0.000412484   0
0.00552739   0.000412484   0
0.00559429   0.000412484   0
0.00565415   0.000412484   0
0.00570758   0.000412484   0
0.00575516   0.000412484   0
0.00579745   0.000412484   0
0.00583496   0.000412484   0
0.00586818   0.000412484   0
0.00589756   0.000412484   0
0.00592351   0.000412484   0
0.00594641   0.000412484   0
0.00596659   0.000412484   0
0.00598436   0.000412484   0
0.006   0.000412484   0
0   0.000614221   0
0.000206774   0.000614221   0
0.000409481   0.000614221   0
0.000604366   0.000614221   0
0.000788253   0.000614221   0
0.000958722   0.000614221   0
0.00111418   0.000614221   0
0.00125384   0.000614221   0
0.00137763   0.000614221   0
0.00148605   0.000614221   0
0.00158003   0.000614221   0
0.00166074   0.000614221   0
0.00172952   0.000614221   0
0.00178776   0.000614221   0
0.00183678   0.000614221   0
0.00187785   0.000614221   0
0.00191212   0.000614221   0
0.00194063   0.000614221   0
0.00196427   0.000614221   0
0.00198384   0.000614221   0
0.002   0.000614221   0
0.00220474   0.000614221   0
0.00239413   0.000614221   0
0.00255709   0.000614221   0
0.00268882   0.000614221   0
0.00279001   0.000614221   0
0.00286476   0.000614221   0
0.00291839   0.000614221   0
0.00295606   0.000614221   0
0.00298214   0.000614221   0
0.003   0.000614221   0
0.00320716   0.000614221   0
0.00341248   0.000614221   0
0.00361422   0.000614221   0
0.00381073   0.000614221   0
0.00400053   0.000614221   0
0.00418238   0.000614221   0
0.00435526   0.000614221   0
0.0045184   0.000614221   0
0.00467127   0.000614221   0
0.00481359   0.000614221   0
0.00494528   0.000614221   0
0.00506645   0.000614221   0
0.00517735   0.000614221   0
0.00527839   0.000614221   0
0.00537004   0.000614221   0
0.00545284   0.000614221   0
0.00552739   0.000614221   0
0.00559429   0.000614221   0
0.00565415   0.000614221   0
0.00570758   0.000614221   0
0.00575516   0.000614221   0
0.00579745   0.000614221   0
0.00583496   0.000614221   0
0.00586818   0.000614221   0
0.00589756   0.000614221   0
0.00592351   0.000614221   0
0.00594641   0.000614221   0
0.00596659   0.000614221   0
0.00598436   0.000614221   0
0.006   0.000614221   0
0   0.000810725   0
0.000206774   0.000810725   0
0.000409481   0.000810725   0
0.000604366   0.000810725   0
0.000788253   0.000810725   0
0.000958722   0.000810725   0
0.00111418   0.000810725   0
0.00125384   0.000810725   0
0.00137763   0.000810725   0
0.00148605   0.000810725   0
0.00158003   0.000810725   0
0.00166074   0.000810725   0
0.00172952   0.000810725   0
0.00178776   0.000810725   0
0.00183678   0.000810725   0
0.00187785   0.000810725   0
0.00191212   0.000810725   0
0.00194063   0.000810725   0
0.00196427   0.000810725   0
0.00198384   0.000810725   0
0.002   0.000810725   0
0.00220474   0.000810725   0
0.00239413   0.000810725   0
0.00255709   0.000810725   0
0.00268882   0.000810725   0
0.00279001   0.000810725   0
0.00286476   0.000810725   0
0.00291839   0.000810725   0
0.00295606   0.000810725   0
0.00298214   0.000810725   0
0.003   0.000810725   0
0.00320716   0.000810725   0
0.00341248   0.000810725   0
0.00361422   0.000810725   0
0.00381073   0.000810725   0
0.00400053   0.000810725   0
0.00418238   0.000810725   0
0.00435526   0.000810725   0
0.0045184   0.000810725   0
0.00467127   0.000810725   0
0.00481359   0.000810725   0
0.00494528   0.000810725   0
0.00506645   0.000810725   0
0.00517735   0.000810725   0
0.00527839   0.000810725   0
0.00537004   0.000810725   0
0.00545284   0.000810725   0
0.00552739   0.000810725   0
0.00559429   0.000810725   0
0.00565415   0.000810725   0
0.00570758   0.000810725   0
0.00575516   0.000810725   0
0.00579745   0.000810725   0
0.00583496   0.000810725   0
0.00586818   0.000810725   0
0.00589756   0.000810725   0
0.00592351   0.000810725   0
0.00594641   0.000810725   0
0.00596659   0.000810725   0
0.00598436   0.000810725   0
0.006   0.000810725   0
0   0.00100053   0
0.000206774   0.00100053   0
0.000409481   0.00100053   0
0.000604366   0.00100053   0
0.000788253   0.00100053   0
0.000958722   0.00100053   0
0.00111418   0.00100053   0
0.00125384   0.00100053   0
0.00137763   0.00100053   0
0.00148605   0.00100053   0
0.00158003   0.00100053   0
0.00166074   0.00100053   0
0.00172952   0.00100053   0
0.00178776   0.00100053   0
0.00183678   0.00100053   0
0.00187785   0.00100053   0
0.00191212   0.00100053   0
0.00194063   0.00100053   0
0.00196427   0.00100053   0
0.00198384   0.00100053   0
0.002   0.00100053   0
0.00220474   0.00100053   0
0.00239413   0.00100053   0
0.00255709   0.00100053   0
0.00268882   0.00100053   0
0.00279001   0.00100053   0
0.00286476   0.00100053   0
0.00291839   0.00100053   0
0.00295606   0.00100053   0
0.00298214   0.00100053   0
0.003   0.00100053   0
0.00320716   0.00100053   0
0.00341248   0.00100053   0
0.00361422   0.00100053   0
0.00381073   0.00100053   0
0.00400053   0.00100053   0
0.00418238   0.00100053   0
0.00435526   0.00100053   0
0.0045184   0.00100053   0
0.00467127   0.00100053   0
0.00481359   0.00100053   0
0.00494528   0.00100053   0
0.00506645   0.00100053   0
0.00517735   0.00100053   0
0.00527839   0.00100053   0
0.00537004   0.00100053   0
0.00545284   0.00100053   0
0.00552739   0.00100053   0
0.00559429   0.00100053   0
0.00565415   0.00100053   0
0.00570758   0.00100053   0
0.00575516   0.00100053   0
0.00579745   0.00100053   0
0.00583496   0.00100053   0
0.00586818   0.00100053   0
0.00589756   0.00100053   0
0.00592351   0.00100053   0
0.00594641   0.00100053   0
0.00596659   0.00100053   0
0.00598436   0.00100053   0
0.006   0.00100053   0
0   0.00118238   0
0.000206774   0.00118238   0
[...]
POINT_DATA   87901
SCALARS Temperatura double
LOOKUP_TABLE   Temperatura

2.33874e-310 3.11832e-310 3.11832e-310 3.11832e-310 3.11832e-310 3.11832e-310 3.11832e-310 3.11832e-310 3.11832e-310 3.11832e-310 3.11832e-310 3.11832e-310 3.11832e-310 3.11832e-310 3.11832e-310 3.90395e-310 3.90546e-310 3.90546e-310 3.90546e-310 3.90546e-310 3.90546e-310 3.90546e-310 3.90546e-310 3.90546e-310 3.90546e-310 3.90546e-310 3.90546e-310 3.90546e-310 3.90546e-310 3.90546e-310 3.874e-310 3.86614e-310 3.86614e-310 3.86614e-310 3.86614e-310 3.86614e-310 3.86614e-310 3.86614e-310 3.86614e-310 3.86614e-310 3.86614e-310 3.86614e-310 3.86614e-310 3.86614e-310 3.86614e-310 3.86983e-310 3.87076e-310 3.87076e-310 3.87076e-310 3.87076e-310 3.87076e-310 3.87076e-310 3.87076e-310 3.87076e-310 3.87076e-310 3.87076e-310 3.87076e-310 3.87076e-310 3.87076e-310 3.87076e-310 7.74152e-311 3.11832e-310 3.8979e-310 3.8979e-310 3.8979e-310 3.8979e-310 3.8979e-310 3.8979e-310 3.8979e-310 3.8979e-310 3.8979e-310 3.8979e-310 3.8979e-310 3.8979e-310 3.8979e-310 3.8979e-310 3.90395e-310 3.90546e-310 3.90546e-310 3.90546e-310 3.90546e-310 3.90546e-310 3.90546e-310 3.90546e-310 3.90546e-310 3.90546e-310 3.90546e-310 3.90546e-310 3.90546e-310 3.90546e-310 3.90546e-310 3.874e-310 3.86614e-310 3.86614e-310 3.86614e-310 3.86614e-310 3.86614e-310 3.86614e-310 3.86614e-310 3.86614e-310 3.86614e-310 3.86614e-310 3.86614e-310 3.86614e-310 3.86614e-310 3.86614e-310 3.86983e-310 3.87076e-310 3.87076e-310 3.87076e-310 3.87076e-310 3.87076e-310 3.87076e-310 3.87076e-310 3.87076e-310 3.87076e-310 3.87076e-310 3.87076e-310 3.87076e-310 3.87076e-310 3.87076e-310 7.74152e-311 3.11832e-310 3.8979e-310 3.8979e-310 3.8979e-310 3.8979e-310 3.8979e-310 3.8979e-310 3.8979e-310 3.8979e-310 3.8979e-310 3.8979e-310 3.8979e-310 3.8979e-310 3.8979e-310 3.8979e-310 3.90395e-310 3.90546e-310 3.90546e-310 3.90546e-310 3.90546e-310 3.90546e-310 3.90546e-310 3.90546e-310 3.90546e-310 3.90546e-310 3.90546e-310 3.90546e-310 3.90546e-310 3.90546e-310 3.90546e-310 3.874e-310 3.86614e-310 3.86614e-310 3.86614e-310 3.86614e-310 3.86614e-310 3.86614e-310 3.86614e-310 3.86614e-310 3.86614e-310 3.86614e-310 3.86614e-310 3.86614e-310 3.86614e-310 3.86614e-310 3.86983e-310 3.87076e-310 3.87076e-310 3.87076e-310 3.87076e-310 3.87076e-310 3.87076e-310 3.87076e-310 3.87076e-310 3.87076e-310 3.87076e-310 3.87076e-310 3.87076e-310 3.87076e-310 3.87076e-310 7.74152e-311 3.11832e-310 3.8979e-310 3.8979e-310 3.8979e-310 3.8979e-310 3.8979e-310 3.8979e-310 3.8979e-310 3.8979e-310 3.8979e-310 3.8979e-310 3.8979e-310 3.8979e-310 3.8979e-310 3.8979e-310 3.90395e-310 3.90546e-310 3.90546e-310 3.90546e-310 3.90546e-310 3.90546e-310 3.90546e-310 3.90546e-310 3.90546e-310 3.90546e-310 3.90546e-310 3.90546e-310 3.90546e-310 3.90546e-310 3.90546e-310 3.874e-310 3.86614e-310 3.86614e-310 3.86614e-310 3.86614e-310 3.86614e-310 3.86614e-310 3.86614e-310 3.86614e-310 3.86614e-310 3.86614e-310 3.86614e-310 3.86614e-310 3.86614e-310 3.86614e-310 3.86983e-310 3.87076e-310 3.87076e-310 3.87076e-310 3.87076e-310 3.87076e-310 3.87076e-310 3.87076e-310 3.87076e-310 3.87076e-310 3.87076e-310 3.87076e-310 3.87076e-310 3.87076e-310 3.87076e-310 7.74152e-311 3.11832e-310 3.8979e-310 3.8979e-310 3.8979e-310 3.8979e-310 3.8979e-310 3.8979e-310 3.8979e-310 3.8979e-310 3.8979e-310 3.8979e-310 3.8979e-310 3.8979e-310 3.8979e-310 3.8979e-310 3.90395e-310 3.90546e-310 3.90546e-310 3.90546e-310 3.90546e-310 3.90546e-310 3.90546e-310 3.90546e-310 3.90546e-310 3.90546e-310 3.90546e-310 3.90546e-310 3.90546e-310 3.90546e-310 3.90546e-310 3.874e-310 3.86614e-310 3.86614e-310 3.86614e-310 3.86614e-310 3.86614e-310 3.86614e-310 3.86614e-310 3.86614e-310 3.86614e-310 3.86614e-310 3.86614e-310 3.86614e-310 3.86614e-310 3.86614e-310 3.86983e-310 3.87076e-310 3.87076e-310 3.87076e-310 3.87076e-310 3.87076e-310 3.87076e-310 3.87076e-310 3.87076e-310 3.87076e-310 3.87076e-310 3.87076e-310 3.87076e-310 3.87076e-310 3.87076e-310 7.74152e-311 3.11832e-310 3.8979e-310 3.8979e-310 3.8979e-310 3.8979e-310 3.8979e-310 3.8979e-310 3.8979e-310 3.8979e-310 3.8979e-310 3.8979e-310 3.8979e-310 3.8979e-310 3.8979e-310 3.8979e-310 3.90395e-310 3.90546e-310 3.90546e-310 3.90546e-310 3.90546e-310 3.90546e-310 3.90546e-310 3.90546e-310 3.90546e-310 3.90546e-310 3.90546e-310 3.90546e-310 3.90546e-310 3.90546e-310 3.90546e-310 3.874e-310 3.86614e-310 3.86614e-310 3.86614e-310 3.86614e-310 3.86614e-310 3.86614e-310 3.86614e-310 3.86614e-310 3.86614e-310 3.86614e-310 3.86614e-310 3.86614e-310 3.86614e-310 3.86614e-310 3.86983e-310 3.87076e-310 3.87076e-310 3.87076e-310 3.87076e-310 3.87076e-310 3.87076e-310 3.87076e-310 3.87076e-310 3.87076e-310 3.87076e-310 3.87076e-310 3.87076e-310 3.87076e-310 3.87076e-310 7.74152e-311 3.11832e-310 3.8979e-310 3.8979e-310 3.8979e-310 3.8979e-310 3.8979e-310 3.8979e-310 3.8979e-310 3.8979e-310 3.8979e-310 3.8979e-310 3.8979e-310 3.8979e-310 3.8979e-310 3.8979e-310 3.90395e-310 3.90546e-310 3.90546e-310 3.90546e-310 3.90546e-310 3.90546e-310 3.90546e-310 3.90546e-310 3.90546e-310 3.90546e-310 3.90546e-310 3.90546e-310 3.90546e-310 3.90546e-310 3.90546e-310 3.874e-310 3.86614e-310 3.86614e-310 3.86614e-310 3.86614e-310 3.86614e-310 3.86614e-310 3.86614e-310 3.86614e-310 3.86614e-310 3.86614e-310 3.86614e-310 3.86614e-310 3.86614e-310 3.86614e-310 3.86983e-310 3.87076e-310 3.87076e-310 3.87076e-310 3.87076e-310 3.87076e-310 3.87076e-310 3.87076e-310 3.87076e-310 3.87076e-310 3.87076e-310 3.87076e-310 3.87076e-310 3.87076e-310 3.87076e-310 7.74152e-311 3.11832e-310 3.8979e-310 3.8979e-310 3.8979e-310 3.8979e-310 3.8979e-310 3.8979e-310 3.8979e-310 3.8979e-310 3.8979e-310 3.8979e-310 3.8979e-310 3.8979e-310 3.8979e-310 3.8979e-310 3.90395e-310 3.90546e-310 3.90546e-310 3.90546e-310 3.90546e-310 3.90546e-310 3.90546e-310 3.90546e-310 3.90546e-310 3.90546e-310 3.90546e-310 3.90546e-310 3.90546e-310 3.90546e-310 3.90546e-310 3.874e-310 3.86614e-310 3.86614e-310 3.86614e-310 3.86614e-310 3.86614e-310 3.86614e-310 3.86614e-310 3.86614e-310 3.86614e-310 3.86614e-310 3.86614e-310 3.86614e-310 3.86614e-310 3.86614e-310 3.86983e-310 3.87076e-310 3.87076e-310 3.87076e-310 3.87076e-310 3.87076e-310 3.87076e-310 3.87076e-310 3.87076e-310 3.87076e-310 3.87076e-310 3.87076e-310 3.87076e-310 3.87076e-310 3.87076e-310 7.74152e-311 3.11832e-310 3.8979e-310 3.8979e-310 3.8979e-310 3.8979e-310 3.8979e-310 3.8979e-310 3.8979e-310 3.8979e-310 3.8979e-310 3.8979e-310 3.8979e-310 3.8979e-310 3.8979e-310 3.8979e-310 3.90395e-310 3.90546e-310 3.90546e-310 3.90546e-310 3.90546e-310 3.90546e-310 3.90546e-310 3.90546e-310 3.90546e-310 3.90546e-310 3.90546e-310 3.90546e-310 3.90546e-310 3.90546e-310 3.90546e-310 3.874e-310 3.86614e-310 3.86614e-310 3.86614e-310 3.86614e-310 3.86614e-310 3.86614e-310 3.86614e-310 3.86614e-310 3.86614e-310 3.86614e-310 3.86614e-310 3.86614e-310 3.86614e-310 3.86614e-310 3.86983e-310 3.87076e-310 3.87076e-310 3.87076e-310 3.87076e-310 3.87076e-310 3.87076e-310 3.87076e-310 3.87076e-310 3.87076e-310 3.87076e-310 3.87076e-310 3.87076e-310 3.87076e-310 3.87076e-310 7.74152e-311 3.11832e-310 3.8979e-310 3.8979e-310 3.8979e-310 3.8979e-310 3.8979e-310 3.8979e-310 3.8979e-310 3.8979e-310 3.8979e-310 3.8979e-310 3.8979e-310 3.8979e-310 3.8979e-310 3.8979e-310 3.90395e-310 3.90546e-310 3.90546e-310 3.90546e-310 3.90546e-310 3.90546e-310 3.90546e-310 3.90546e-310 3.90546e-310 3.90546e-310 3.90546e-310 3.90546e-310 3.90546e-310 3.90546e-310 3.90546e-310 3.874e-310 3.86614e-310 3.86614e-310 3.86614e-310 3.86614e-310 3.86614e-310 3.86614e-310 3.86614e-310 3.86614e-310 3.86614e-310 3.86614e-310 3.86614e-310 3.86614e-310 3.86614e-310 3.86614e-310 3.86983e-310 3.87076e-310 3.87076e-310 3.87076e-310 3.87076e-310 3.87076e-310 3.87076e-310 3.87076e-310 3.87076e-310 3.87076e-310 3.87076e-310 3.87076e-310 3.87076e-310 3.87076e-310 3.87076e-310 7.74152e-311 3.11832e-310 3.8979e-310 3.8979e-310 3.8979e-310 3.8979e-310 3.8979e-310 3.8979e-310 3.8979e-310 3.8979e-310 3.8979e-310 3.8979e-310 3.8979e-310 3.8979e-310 3.8979e-310 3.8979e-310 3.90395e-310 3.90546e-310 3.90546e-310 3.90546e-310 3.90546e-310 3.90546e-310 3.90546e-310 3.90546e-310 3.90546e-310 3.90546e-310 3.90546e-310 3.90546e-310 3.90546e-310 3.90546e-310 3.90546e-310 3.874e-310 3.86614e-310 3.86614e-310 3.86614e-310 3.86614e-310 3.86614e-310 3.86614e-310 3.86614e-310 3.86614e-310 3.86614e-310 3.86614e-310 3.86614e-310 3.86614e-310 3.86614e-310 3.86614e-310 3.86983e-310 3.87076e-310 3.87076e-310 3.87076e-310 3.87076e-310 3.87076e-310 3.87076e-310 3.87076e-310 3.87076e-310 3.87076e-310 3.87076e-310 3.87076e-310 3.87076e-310 3.87076e-310 3.87076e-310 7.74152e-311 3.11832e-310 3.8979e-310 3.8979e-310 3.8979e-310 3.8979e-310 3.8979e-310 3.8979e-310 3.8979e-310 3.8979e-310 3.8979e-310 3.8979e-310 3.8979e-310 3.8979e-310 3.8979e-310 3.8979e-310 3.90395e-310 3.90546e-310 3.90546e-310 3.90546e-310 3.90546e-310 3.90546e-310 3.90546e-310 3.90546e-310 3.90546e-310 3.90546e-310 3.90546e-310 3.90546e-310 3.90546e-310 3.90546e-310 3.90546e-310 3.874e-310 3.86614e-310 3.86614e-310 3.86614e-310 3.86614e-310 3.86614e-310 3.86614e-310 3.86614e-310 3.86614e-310 3.86614e-310 3.86614e-310 3.86614e-310 3.86614e-310 3.86614e-310 3.86614e-310 3.86983e-310 3.87076e-310 3.87076e-310 3.87076e-310 3.87076e-310 3.87076e-310 3.87076e-310 3.87076e-310 3.87076e-310 3.87076e-310 3.87076e-310 3.87076e-310 3.87076e-310 3.87076e-310 3.87076e-310 7.74152e-311 3.11832e-310 3.8979e-310 3.8979e-310 3.8979e-310 3.8979e-310 3.8979e-310 3.8979e-310 3.8979e-310 3.8979e-310 3.8979e-310 3.8979e-310 3.8979e-310 3.8979e-310 3.8979e-310 3.8979e-310 3.90395e-310 3.90546e-310 3.90546e-310 3.90546e-310 3.90546e-310 3.90546e-310 3.90546e-310 3.90546e-310 3.90546e-310 3.90546e-310 3.90546e-310 3.90546e-310 3.90546e-310 3.90546e-310 3.90546e-310 3.874e-310 3.86614e-310 3.86614e-310 3.86614e-310 3.86614e-310 3.86614e-310 3.86614e-310 3.86614e-310 3.86614e-310 3.86614e-310 3.86614e-310 3.86614e-310 3.86614e-310 3.86614e-310 3.86614e-310 3.86983e-310 3.87076e-310 3.87076e-310 3.87076e-310 3.87076e-310 3.87076e-310 3.87076e-310 3.87076e-310 3.87076e-310 3.87076e-310 3.87076e-310 3.87076e-310 3.87076e-310 3.87076e-310 3.87076e-310 7.74152e-311 3.11832e-310 3.8979e-310 3.8979e-310 3.8979e-310 3.8979e-310 3.8979e-310 3.8979e-310 3.8979e-310 3.8979e-310 3.8979e-310 3.8979e-310 3.8979e-310 3.8979e-310 3.8979e-310 3.8979e-310 3.90395e-310 3.90546e-310 3.90546e-310 3.90546e-310 3.90546e-310 3.90546e-310 3.90546e-310 3.90546e-310 3.90546e-310 3.90546e-310 3.90546e-310 3.90546e-310 3.90546e-310 3.90546e-310 3.90546e-310 3.874e-310 3.86614e-310 3.86614e-310 3.86614e-310 3.86614e-310 3.86614e-310 3.86614e-310 3.86614e-310 3.86614e-310 3.86614e-310 3.86614e-310 3.86614e-310 3.86614e-310 3.86614e-310 3.86614e-310 3.86983e-310 3.87076e-310 3.87076e-310 3.87076e-310 3.87076e-310 3.87076e-310 3.87076e-310 3.87076e-310 3.87076e-310 3.87076e-310 3.87076e-310 3.87076e-310 3.87076e-310 3.87076e-310 3.87076e-310 7.74152e-311 3.11832e-310 3.8979e-310 3.8979e-310 3.8979e-310 3.8979e-310 3.8979e-310 3.8979e-310 3.8979e-310 3.8979e-310 3.8979e-310 3.8979e-310 3.8979e-310 3.8979e-310 3.8979e-310 3.8979e-310 3.90395e-310 3.90546e-310 3.90546e-310 3.90546e-310 3.90546e-310 3.90546e-310 3.90546e-310 3.90546e-310 3.90546e-310 3.90546e-310 3.90546e-310 3.90546e-310 3.90546e-310 3.90546e-310 3.90546e-310 3.874e-310 3.86614e-310 3.86614e-310 3.86614e-310 3.86614e-310 3.86614e-310 3.86614e-310 3.86614e-310 3.86614e-310 3.86614e-310 3.86614e-310 3.86614e-310 3.86614e-310 3.86614e-310 3.86614e-310 3.86983e-310 3.87076e-310 3.87076e-310 3.87076e-310 3.87076e-310 3.87076e-310 3.87076e-310 3.87076e-310 3.87076e-310 3.87076e-310 3.87076e-310 3.87076e-310 3.87076e-310 3.87076e-310 3.87076e-310 7.74152e-311 3.11832e-310 3.8979e-310 3.8979e-310 3.8979e-310 3.8979e-310 3.8979e-310 3.8979e-310 3.8979e-310 3.8979e-310 3.8979e-310 3.8979e-310 3.8979e-310 3.8979e-310 3.8979e-310 3.8979e-310 3.90395e-310 3.90546e-310 3.90546e-310 3.90546e-310 3.90546e-310 3.90546e-310 3.90546e-310 3.90546e-310 3.90546e-310 3.90546e-310 3.90546e-310 3.90546e-310 3.90546e-310 3.90546e-310 3.90546e-310 3.874e-310 3.86614e-310 3.86614e-310 3.86614e-310 3.86614e-310 3.86614e-310 3.86614e-310 3.86614e-310 3.86614e-310 3.86614e-310 3.86614e-310 3.86614e-310 3.86614e-310 3.86614e-310 3.86614e-310 3.86983e-310 3.87076e-310 3.87076e-310 3.87076e-310 3.87076e-310 3.87076e-310 3.87076e-310 3.87076e-310 3.87076e-310 3.87076e-310 3.87076e-310 3.87076e-310 3.87076e-310 3.87076e-310 3.87076e-310 7.74152e-311 3.11832e-310 3.8979e-310 3.8979e-310 3.8979e-310 3.8979e-310 3.8979e-310 3.8979e-310 3.8979e-310 3.8979e-310 3.8979e-310 3.8979e-310 3.8979e-310 3.8979e-310 3.8979e-310 3.8979e-310 3.90395e-310 3.90546e-310 3.90546e-310 3.90546e-310 3.90546e-310 3.90546e-310 3.90546e-310 3.90546e-310 3.90546e-310 3.90546e-310 3.90546e-310 3.90546e-310 3.90546e-310 3.90546e-310 3.90546e-310 3.874e-310 3.86614e-310 3.86614e-310 3.86614e-310 3.86614e-310 3.86614e-310 3.86614e-310 3.86614e-310 3.86614e-310 3.86614e-310 3.86614e-310 3.86614e-310 3.86614e-310 3.86614e-310 3.86614e-310 3.86983e-310 3.87076e-310 3.87076e-310 3.87076e-310 3.87076e-310 3.87076e-310 3.87076e-310 3.87076e-310 3.87076e-310 3.87076e-310 3.87076e-310 3.87076e-310 3.87076e-310 3.87076e-310 3.87076e-310 7.74152e-311 3.11832e-310 3.8979e-310 3.8979e-310 3.8979e-310 3.8979e-310 3.8979e-310 3.8979e-310 3.8979e-310 3.8979e-310 3.8979e-310 3.8979e-310 3.8979e-310 3.8979e-310 3.8979e-310 3.8979e-310 3.90395e-310 3.90546e-310 3.90546e-310 3.90546e-310 3.90546e-310 3.90546e-310 3.90546e-310 3.90546e-310 3.90546e-310 3.90546e-310 3.90546e-310 3.90546e-310 3.90546e-310 3.90546e-310 3.90546e-310 3.874e-310 3.86614e-310 3.86614e-310 3.86614e-310 3.86614e-310 3.86614e-310 3.86614e-310 3.86614e-310 3.86614e-310 3.86614e-310 3.86614e-310 3.86614e-310 3.86614e-310 3.86614e-310 3.86614e-310 3.86983e-310 3.87076e-310 3.87076e-310 3.87076e-310 3.87076e-310 3.87076e-310 3.87076e-310 3.87076e-310 3.87076e-310 3.87076e-310 3.87076e-310 3.87076e-310 3.87076e-310 3.87076e-310 3.87076e-310 7.74152e-311 3.11832e-310 3.8979e-310 3.8979e-310 3.8979e-310 3.8979e-310 3.8979e-310 3.8979e-310 3.8979e-310 3.8979e-310 3.8979e-310 3.8979e-310 3.8979e-310 3.8979e-310 3.8979e-310 3.8979e-310 3.90395e-310 3.90546e-310 3.90546e-310 3.90546e-310 3.90546e-310 3.90546e-310 3.90546e-310 3.90546e-310 3.90546e-310 3.90546e-310 3.90546e-310 3.90546e-310 3.90546e-310 3.90546e-310 3.90546e-310 3.874e-310 3.86614e-310 3.86614e-310 3.86614e-310 3.86614e-310 3.86614e-310 3.86614e-310 3.86614e-310 3.86614e-310 3.86614e-310 3.86614e-310 3.86614e-310 3.86614e-310 3.86614e-310 3.86614e-310 3.86983e-310 3.87076e-310 3.87076e-310 3.87076e-310 3.87076e-310 3.87076e-310 3.87076e-310 3.87076e-310 3.87076e-310 3.87076e-310 3.87076e-310 3.87076e-310 3.87076e-310 3.87076e-310 3.87076e-310 7.74152e-311 3.11832e-310 3.8979e-310 3.8979e-310 3.8979e-310 3.8979e-310 3.8979e-310 3.8979e-310 3.8979e-310 3.8979e-310 3.8979e-310 3.8979e-310 3.8979e-310 3.8979e-310 3.8979e-310 3.8979e-310 3.90395e-310 3.90546e-310 3.90546e-310 3.90546e-310 3.90546e-310 3.90546e-310 3.90546e-310 3.90546e-310 3.90546e-310 3.90546e-310 3.90546e-310 3.90546e-310 3.90546e-310 3.90546e-310 3.90546e-310 3.874e-310 3.86614e-310 3.86614e-310 3.86614e-310 3.86614e-310 3.86614e-310 3.86614e-310 3.86614e-310 3.86614e-310 3.86614e-310 3.86614e-310 3.86614e-310 3.86614e-310 3.86614e-310 3.86614e-310 3.86983e-310 3.87076e-310 3.87076e-310 3.87076e-310 3.87076e-310 3.87076e-310 3.87076e-310 3.87076e-310 3.87076e-310 3.87076e-310 3.87076e-310 3.87076e-310 3.87076e-310 3.87076e-310 3.87076e-310 7.74152e-311 3.11832e-310 3.8979e-310 3.8979e-310 3.8979e-310 3.8979e-310 3.8979e-310 3.8979e-310 3.8979e-310 3.8979e-310 3.8979e-310 3.8979e-310 3.8979e-310 3.8979e-310 3.8979e-310 3.8979e-310 3.90395e-310 3.90546e-310 3.90546e-310 3.90546e-310 3.90546e-310 3.90546e-310 3.90546e-310 3.90546e-310 3.90546e-310 3.90546e-310 3.90546e-310 3.90546e-310 3.90546e-310 3.90546e-310 3.90546e-310 3.874e-310 3.86614e-310 3.86614e-310 3.86614e-310 3.86614e-310 3.86614e-310 3.86614e-310 3.86614e-310 3.86614e-310 3.86614e-310 3.86614e-310 3.86614e-310 3.86614e-310 3.86614e-310 3.86614e-310 3.86983e-310 3.87076e-310 3.87076e-310 3.87076e-310 3.87076e-310 3.87076e-310 3.87076e-310 3.87076e-310 3.87076e-310 3.87076e-310 3.87076e-310 3.87076e-310 3.87076e-310 3.87076e-310 3.87076e-310 7.74152e-311 3.11832e-310 3.8979e-310 3.8979e-310 3.8979e-310 3.8979e-310 3.8979e-310 3.8979e-310 3.8979e-310 3.8979e-310 3.8979e-310 3.8979e-310 3.8979e-310 3.8979e-310 3.8979e-310 3.8979e-310 3.90395e-310 3.90546e-310 3.90546e-310 3.90546e-310 3.90546e-310 3.90546e-310 3.90546e-310 3.90546e-310 3.90546e-310 3.90546e-310 3.90546e-310 3.90546e-310 3.90546e-310 3.90546e-310 3.90546e-310 3.874e-310 3.86614e-310 3.86614e-310 3.86614e-310 3.86614e-310 3.86614e-310 3.86614e-310 3.86614e-310 3.86614e-310 3.86614e-310 3.86614e-310 3.86614e-310 3.86614e-310 3.86614e-310 3.86614e-310 3.86983e-310 3.87076e-310 3.87076e-310 3.87076e-310 3.87076e-310 3.87076e-310 3.87076e-310 3.87076e-310 3.87076e-310 3.87076e-310 3.87076e-310 3.87076e-310 3.87076e-310 3.87076e-310 3.87076e-310 7.74152e-311 3.11832e-310 3.8979e-310 3.8979e-310 3.8979e-310 3.8979e-310 3.8979e-310 3.8979e-310 3.8979e-310 3.8979e-310 3.8979e-310 3.8979e-310 3.8979e-310 3.8979e-310 3.8979e-310 3.8979e-310 3.90395e-310 3.90546e-310 3.90546e-310 3.90546e-310 3.90546e-310 3.90546e-310 3.90546e-310 3.90546e-310 3.90546e-310 3.90546e-310 3.90546e-310 3.90546e-310 3.90546e-310 3.90546e-310 3.90546e-310 3.874e-310 3.86614e-310 3.86614e-310 3.86614e-310 3.86614e-310 3.86614e-310 3.86614e-310 3.86614e-310 3.86614e-310 3.86614e-310 3.86614e-310 3.86614e-310 3.86614e-310 3.86614e-310 3.86614e-310 3.86983e-310 3.87076e-310 3.87076e-310 3.87076e-310 3.87076e-310 3.87076e-310 3.87076e-310 3.87076e-310 3.87076e-310 3.87076e-310 3.87076e-310 3.87076e-310 3.87076e-310 3.87076e-310 3.87076e-310 7.74152e-311 3.11832e-310 3.8979e-310 3.8979e-310 3.8979e-310 3.8979e-310 3.8979e-310 3.8979e-310 3.8979e-310 3.8979e-310 3.8979e-310 3.8979e-310 3.8979e-310 3.8979e-310 3.8979e-310 3.8979e-310 3.90395e-310 3.90546e-310 3.90546e-310 3.90546e-310 3.90546e-310 3.90546e-310 3.90546e-310 3.90546e-310 3.90546e-310 3.90546e-310 3.90546e-310 3.90546e-310 3.90546e-310 3.90546e-310 3.90546e-310 3.874e-310 3.86614e-310 3.86614e-310 3.86614e-310 3.86614e-310 3.86614e-310 3.86614e-310 3.86614e-310 3.86614e-310 3.86614e-310 3.86614e-310 3.86614e-310 3.86614e-310 3.86614e-310 3.86614e-310 3.86983e-310 3.87076e-310 3.87076e-310 3.87076e-310 3.87076e-310 3.87076e-310 3.87076e-310 3.87076e-310 3.87076e-310 3.87076e-310 3.87076e-310 3.87076e-310 3.87076e-310 3.87076e-310 3.87076e-310 7.74152e-311 3.11832e-310 3.8979e-310 3.8979e-310 3.8979e-310 3.8979e-310 3.8979e-310 3.8979e-310 3.8979e-310 3.8979e-310 3.8979e-310 3.8979e-310 3.8979e-310 3.8979e-310 3.8979e-310 3.8979e-310 3.90395e-310 3.90546e-310 3.90546e-310 3.90546e-310 3.90546e-310 3.90546e-310 3.90546e-310 3.90546e-310 3.90546e-310 3.90546e-310 3.90546e-310 3.90546e-310 3.90546e-310 3.90546e-310 3.90546e-310 3.874e-310 3.86614e-310 3.86614e-310 3.86614e-310 3.86614e-310 3.86614e-310 3.86614e-310 3.86614e-310 3.86614e-310 3.86614e-310 3.86614e-310 3.86614e-310 3.86614e-310 3.86614e-310 3.86614e-310 3.86983e-310 3.87076e-310 3.87076e-310 3.87076e-310 3.87076e-310 3.87076e-310 3.87076e-310 3.87076e-310 3.87076e-310 3.87076e-310 3.87076e-310 3.87076e-310 3.87076e-310 3.87076e-310 3.87076e-310 7.74152e-311 3.11832e-310 3.8979e-310 3.8979e-310 3.8979e-310 3.8979e-310 3.8979e-310 3.8979e-310 3.8979e-310 3.8979e-310 3.8979e-310 3.8979e-310 3.8979e-310 3.8979e-310 3.8979e-310 3.8979e-310 3.90395e-310 3.90546e-310 3.90546e-310 3.90546e-310 3.90546e-310 3.90546e-310 3.90546e-310 3.90546e-310 3.90546e-310 3.90546e-310 3.90546e-310 3.90546e-310 3.90546e-310 3.90546e-310 3.90546e-310 3.874e-310 3.86614e-310 3.86614e-310 3.86614e-310 3.86614e-310 3.86614e-310 3.86614e-310 3.86614e-310 3.86614e-