# vtk DataFile Version 2.0
Temperatura
ASCII

DATASET STRUCTURED_GRID
DIMENSIONS   72   30   40

POINTS   86400   double
0.00234671   9.86017e-05   0.00104846
0.00713993   9.86017e-05   0.00104846
0.0121352   9.86017e-05   0.00104846
0.0173374   9.86017e-05   0.00104846
0.0227511   9.86017e-05   0.00104846
0.0283806   9.86017e-05   0.00104846
0.0342299   9.86017e-05   0.00104846
0.0403025   9.86017e-05   0.00104846
0.0466016   9.86017e-05   0.00104846
0.0531298   9.86017e-05   0.00104846
0.0598891   9.86017e-05   0.00104846
0.0668812   9.86017e-05   0.00104846
0.074107   9.86017e-05   0.00104846
0.0815665   9.86017e-05   0.00104846
0.0892593   9.86017e-05   0.00104846
0.097184   9.86017e-05   0.00104846
0.105339   9.86017e-05   0.00104846
0.11372   9.86017e-05   0.00104846
0.122325   9.86017e-05   0.00104846
0.131147   9.86017e-05   0.00104846
0.140183   9.86017e-05   0.00104846
0.149424   9.86017e-05   0.00104846
0.158863   9.86017e-05   0.00104846
0.168492   9.86017e-05   0.00104846
0.178301   9.86017e-05   0.00104846
0.18828   9.86017e-05   0.00104846
0.198417   9.86017e-05   0.00104846
0.208701   9.86017e-05   0.00104846
0.219117   9.86017e-05   0.00104846
0.229653   9.86017e-05   0.00104846
0.240294   9.86017e-05   0.00104846
0.251025   9.86017e-05   0.00104846
0.261831   9.86017e-05   0.00104846
0.272694   9.86017e-05   0.00104846
0.2836   9.86017e-05   0.00104846
0.29453   9.86017e-05   0.00104846
0.30547   9.86017e-05   0.00104846
0.3164   9.86017e-05   0.00104846
0.327306   9.86017e-05   0.00104846
0.338169   9.86017e-05   0.00104846
0.348975   9.86017e-05   0.00104846
0.359706   9.86017e-05   0.00104846
0.370347   9.86017e-05   0.00104846
0.380883   9.86017e-05   0.00104846
0.391299   9.86017e-05   0.00104846
0.401583   9.86017e-05   0.00104846
0.41172   9.86017e-05   0.00104846
0.421699   9.86017e-05   0.00104846
0.431508   9.86017e-05   0.00104846
0.441137   9.86017e-05   0.00104846
0.450576   9.86017e-05   0.00104846
0.459817   9.86017e-05   0.00104846
0.468853   9.86017e-05   0.00104846
0.477675   9.86017e-05   0.00104846
0.48628   9.86017e-05   0.00104846
0.494661   9.86017e-05   0.00104846
0.502816   9.86017e-05   0.00104846
0.510741   9.86017e-05   0.00104846
0.518434   9.86017e-05   0.00104846
0.525893   9.86017e-05   0.00104846
0.533119   9.86017e-05   0.00104846
0.540111   9.86017e-05   0.00104846
0.54687   9.86017e-05   0.00104846
0.553398   9.86017e-05   0.00104846
0.559697   9.86017e-05   0.00104846
0.56577   9.86017e-05   0.00104846
0.571619   9.86017e-05   0.00104846
0.577249   9.86017e-05   0.00104846
0.582663   9.86017e-05   0.00104846
0.587865   9.86017e-05   0.00104846
0.59286   9.86017e-05   0.00104846
0.597653   9.86017e-05   0.00104846
0.00234671   0.00031676   0.00104846
0.00713993   0.00031676   0.00104846
0.0121352   0.00031676   0.00104846
0.0173374   0.00031676   0.00104846
0.0227511   0.00031676   0.00104846
0.0283806   0.00031676   0.00104846
0.0342299   0.00031676   0.00104846
0.0403025   0.00031676   0.00104846
0.0466016   0.00031676   0.00104846
0.0531298   0.00031676   0.00104846
0.0598891   0.00031676   0.00104846
0.0668812   0.00031676   0.00104846
0.074107   0.00031676   0.00104846
0.0815665   0.00031676   0.00104846
0.0892593   0.00031676   0.00104846
0.097184   0.00031676   0.00104846
0.105339   0.00031676   0.00104846
0.11372   0.00031676   0.00104846
0.122325   0.00031676   0.00104846
0.131147   0.00031676   0.00104846
0.140183   0.00031676   0.00104846
0.149424   0.00031676   0.00104846
0.158863   0.00031676   0.00104846
0.168492   0.00031676   0.00104846
0.178301   0.00031676   0.00104846
0.18828   0.00031676   0.00104846
0.198417   0.00031676   0.00104846
0.208701   0.00031676   0.00104846
0.219117   0.00031676   0.00104846
0.229653   0.00031676   0.00104846
0.240294   0.00031676   0.00104846
0.251025   0.00031676   0.00104846
0.261831   0.00031676   0.00104846
0.272694   0.00031676   0.00104846
0.2836   0.00031676   0.00104846
0.29453   0.00031676   0.00104846
0.30547   0.00031676   0.00104846
0.3164   0.00031676   0.00104846
0.327306   0.00031676   0.00104846
0.338169   0.00031676   0.00104846
0.348975   0.00031676   0.00104846
0.359706   0.00031676   0.00104846
0.370347   0.00031676   0.00104846
0.380883   0.00031676   0.00104846
0.391299   0.00031676   0.00104846
0.401583   0.00031676   0.00104846
0.41172   0.00031676   0.00104846
0.421699   0.00031676   0.00104846
0.431508   0.00031676   0.00104846
0.441137   0.00031676   0.00104846
0.450576   0.00031676   0.00104846
0.459817   0.00031676   0.00104846
0.468853   0.00031676   0.00104846
0.477675   0.00031676   0.00104846
0.48628   0.00031676   0.00104846
0.494661   0.00031676   0.00104846
0.502816   0.00031676   0.00104846
0.510741   0.00031676   0.00104846
0.518434   0.00031676   0.00104846
0.525893   0.00031676   0.00104846
0.533119   0.00031676   0.00104846
0.540111   0.00031676   0.00104846
0.54687   0.00031676   0.00104846
0.553398   0.00031676   0.00104846
0.559697   0.00031676   0.00104846
0.56577   0.00031676   0.00104846
0.571619   0.00031676   0.00104846
0.577249   0.00031676   0.00104846
0.582663   0.00031676   0.00104846
0.587865   0.00031676   0.00104846
0.59286   0.00031676   0.00104846
0.597653   0.00031676   0.00104846
0.00234671   0.000580617   0.00104846
0.00713993   0.000580617   0.00104846
0.0121352   0.000580617   0.00104846
0.0173374   0.000580617   0.00104846
0.0227511   0.000580617   0.00104846
0.0283806   0.000580617   0.00104846
0.0342299   0.000580617   0.00104846
0.0403025   0.000580617   0.00104846
0.0466016   0.000580617   0.00104846
0.0531298   0.000580617   0.00104846
0.0598891   0.000580617   0.00104846
0.0668812   0.000580617   0.00104846
0.074107   0.000580617   0.00104846
0.0815665   0.000580617   0.00104846
0.0892593   0.000580617   0.00104846
0.097184   0.000580617   0.00104846
0.105339   0.000580617   0.00104846
0.11372   0.000580617   0.00104846
0.122325   0.000580617   0.00104846
0.131147   0.000580617   0.00104846
0.140183   0.000580617   0.00104846
0.149424   0.000580617   0.00104846
0.158863   0.000580617   0.00104846
0.168492   0.000580617   0.00104846
0.178301   0.000580617   0.00104846
0.18828   0.000580617   0.00104846
0.198417   0.000580617   0.00104846
0.208701   0.000580617   0.00104846
0.219117   0.000580617   0.00104846
0.229653   0.000580617   0.00104846
0.240294   0.000580617   0.00104846
0.251025   0.000580617   0.00104846
0.261831   0.000580617   0.00104846
0.272694   0.000580617   0.00104846
0.2836   0.000580617   0.00104846
0.29453   0.000580617   0.00104846
0.30547   0.000580617   0.00104846
0.3164   0.000580617   0.00104846
0.327306   0.000580617   0.00104846
0.338169   0.000580617   0.00104846
0.348975   0.000580617   0.00104846
0.359706   0.000580617   0.00104846
0.370347   0.000580617   0.00104846
0.380883   0.000580617   0.00104846
0.391299   0.000580617   0.00104846
0.401583   0.000580617   0.00104846
0.41172   0.000580617   0.00104846
0.421699   0.000580617   0.00104846
0.431508   0.000580617   0.00104846
0.441137   0.000580617   0.00104846
0.450576   0.000580617   0.00104846
0.459817   0.000580617   0.00104846
0.468853   0.000580617   0.00104846
0.477675   0.000580617   0.00104846
0.48628   0.000580617   0.00104846
0.494661   0.000580617   0.00104846
0.502816   0.000580617   0.00104846
0.510741   0.000580617   0.00104846
0.518434   0.000580617   0.00104846
0.525893   0.000580617   0.00104846
0.533119   0.000580617   0.00104846
0.540111   0.000580617   0.00104846
0.54687   0.000580617   0.00104846
0.553398   0.000580617   0.00104846
0.559697   0.000580617   0.00104846
0.56577   0.000580617   0.00104846
0.571619   0.000580617   0.00104846
0.577249   0.000580617   0.00104846
0.582663   0.000580617   0.00104846
0.587865   0.000580617   0.00104846
0.59286   0.000580617   0.00104846
0.597653   0.000580617   0.00104846
0.00234671   0.000898112   0.00104846
0.00713993   0.000898112   0.00104846
0.0121352   0.000898112   0.00104846
0.0173374   0.000898112   0.00104846
0.0227511   0.000898112   0.00104846
0.0283806   0.000898112   0.00104846
0.0342299   0.000898112   0.00104846
0.0403025   0.000898112   0.00104846
0.0466016   0.000898112   0.00104846
0.0531298   0.000898112   0.00104846
0.0598891   0.000898112   0.00104846
0.0668812   0.000898112   0.00104846
0.074107   0.000898112   0.00104846
0.0815665   0.000898112   0.00104846
0.0892593   0.000898112   0.00104846
0.097184   0.000898112   0.00104846
0.105339   0.000898112   0.00104846
0.11372   0.000898112   0.00104846
0.122325   0.000898112   0.00104846
0.131147   0.000898112   0.00104846
0.140183   0.000898112   0.00104846
0.149424   0.000898112   0.00104846
0.158863   0.000898112   0.00104846
0.168492   0.000898112   0.00104846
0.178301   0.000898112   0.00104846
0.18828   0.000898112   0.00104846
0.198417   0.000898112   0.00104846
0.208701   0.000898112   0.00104846
0.219117   0.000898112   0.00104846
0.229653   0.000898112   0.00104846
0.240294   0.000898112   0.00104846
0.251025   0.000898112   0.00104846
0.261831   0.000898112   0.00104846
0.272694   0.000898112   0.00104846
0.2836   0.000898112   0.00104846
0.29453   0.000898112   0.00104846
0.30547   0.000898112   0.00104846
0.3164   0.000898112   0.00104846
0.327306   0.000898112   0.00104846
0.338169   0.000898112   0.00104846
0.348975   0.000898112   0.00104846
0.359706   0.000898112   0.00104846
0.370347   0.000898112   0.00104846
0.380883   0.000898112   0.00104846
0.391299   0.000898112   0.00104846
0.401583   0.000898112   0.00104846
0.41172   0.000898112   0.00104846
0.421699   0.000898112   0.00104846
0.431508   0.000898112   0.00104846
0.441137   0.000898112   0.00104846
0.450576   0.000898112   0.00104846
0.459817   0.000898112   0.00104846
0.468853   0.000898112   0.00104846
0.477675   0.000898112   0.00104846
0.48628   0.000898112   0.00104846
0.494661   0.000898112   0.00104846
0.502816   0.000898112   0.00104846
0.510741   0.000898112   0.00104846
0.518434   0.000898112   0.00104846
0.525893   0.000898112   0.00104846
[...]
POINT_DATA   86400
SCALARS Temperatura double
LOOKUP_TABLE   Temperatura

22.5522 22.6592 22.7195 22.7584 22.784 22.8003 22.8094 22.8127 22.8111 22.8054 22.7957 22.7829 22.7669 22.7483 22.7268 22.7033 22.6773 22.6496 22.6198 22.5886 22.5556 22.5217 22.4862 22.4502 22.4131 22.3758 22.3376 22.2998 22.2613 22.2237 22.1857 22.1491 22.1119 22.077 22.0414 22.0088 21.9752 21.9454 21.914 21.8874 21.8585 21.8355 21.8091 21.7899 21.7662 21.7507 21.7296 21.7179 21.6995 21.6915 21.6757 21.6712 21.6581 21.6568 21.6464 21.6482 21.6405 21.6451 21.6403 21.6474 21.6456 21.6551 21.6564 21.6678 21.6726 21.6857 21.6943 21.7084 21.7219 21.7349 21.7577 21.7479 22.5488 22.6558 22.7163 22.7554 22.7812 22.7977 22.8069 22.8105 22.809 22.8034 22.7939 22.7813 22.7653 22.7468 22.7255 22.7021 22.6762 22.6486 22.6189 22.5878 22.5549 22.521 22.4856 22.4497 22.4126 22.3754 22.3372 22.2994 22.261 22.2235 22.1854 22.1488 22.1117 22.0768 22.0412 22.0086 21.9749 21.9452 21.9137 21.8872 21.8583 21.8353 21.8089 21.7896 21.7659 21.7504 21.7293 21.7175 21.6991 21.691 21.6752 21.6706 21.6575 21.6561 21.6457 21.6474 21.6397 21.6442 21.6393 21.6464 21.6445 21.6539 21.6551 21.6665 21.6711 21.6841 21.6927 21.7066 21.7201 21.7329 21.7556 21.7459 22.5412 22.648 22.7089 22.7484 22.7747 22.7917 22.8013 22.8053 22.8042 22.799 22.7898 22.7775 22.7619 22.7437 22.7227 22.6995 22.6739 22.6466 22.617 22.5862 22.5535 22.5198 22.4846 22.4488 22.4118 22.3747 22.3367 22.299 22.2606 22.2232 22.1852 22.1486 22.1116 22.0767 22.0411 22.0085 21.9749 21.9451 21.9136 21.8871 21.8581 21.8351 21.8086 21.7893 21.7655 21.75 21.7288 21.717 21.6985 21.6903 21.6744 21.6697 21.6564 21.655 21.6444 21.646 21.6381 21.6426 21.6375 21.6444 21.6423 21.6516 21.6526 21.6638 21.6682 21.681 21.6893 21.7029 21.7161 21.7286 21.7512 21.7416 22.5291 22.635 22.6964 22.7366 22.7636 22.7814 22.7918 22.7965 22.7961 22.7915 22.7831 22.7714 22.7563 22.7387 22.7182 22.6956 22.6704 22.6435 22.6144 22.5839 22.5516 22.5182 22.4833 22.4478 22.4111 22.3742 22.3364 22.2989 22.2607 22.2234 22.1855 22.1491 22.1121 22.0773 22.0417 22.0092 21.9755 21.9457 21.9142 21.8877 21.8586 21.8355 21.809 21.7896 21.7657 21.75 21.7287 21.7168 21.6981 21.6898 21.6737 21.6689 21.6554 21.6538 21.643 21.6444 21.6363 21.6405 21.6351 21.6418 21.6394 21.6483 21.649 21.6598 21.6639 21.6763 21.6842 21.6974 21.7102 21.7221 21.7444 21.7351 22.5126 22.6161 22.6779 22.7191 22.7472 22.7661 22.7776 22.7834 22.7841 22.7807 22.7732 22.7625 22.7484 22.7317 22.7121 22.6902 22.6659 22.6397 22.6113 22.5814 22.5497 22.5169 22.4825 22.4475 22.4112 22.3747 22.3372 22.3 22.2621 22.225 22.1873 22.151 22.1142 22.0795 22.044 22.0115 21.9778 21.9481 21.9165 21.8899 21.8607 21.8376 21.8109 21.7915 21.7673 21.7516 21.7301 21.718 21.699 21.6905 21.6742 21.6691 21.6553 21.6535 21.6423 21.6434 21.6349 21.6387 21.633 21.6393 21.6364 21.6449 21.645 21.6554 21.6589 21.6707 21.678 21.6905 21.7027 21.7137 21.7357 21.7268 22.4929 22.5915 22.6532 22.6954 22.7248 22.7452 22.7583 22.7657 22.768 22.766 22.7601 22.7508 22.7381 22.7228 22.7044 22.6839 22.6607 22.6356 22.6082 22.5794 22.5486 22.5167 22.4831 22.4488 22.4131 22.3773 22.3403 22.3036 22.2661 22.2294 22.192 22.156 22.1193 22.0848 22.0494 22.017 21.9834 21.9537 21.922 21.8954 21.8661 21.8429 21.816 21.7964 21.772 21.7561 21.7343 21.722 21.7027 21.6939 21.6772 21.6718 21.6576 21.6554 21.6437 21.6444 21.6354 21.6387 21.6324 21.6382 21.6347 21.6425 21.6421 21.6517 21.6545 21.6654 21.672 21.6835 21.695 21.7048 21.7261 21.7179 22.472 22.5624 22.6228 22.6656 22.6965 22.7186 22.7336 22.743 22.7473 22.7475 22.7436 22.7363 22.7256 22.7122 22.6957 22.6769 22.6553 22.6319 22.6061 22.5787 22.5492 22.5186 22.4862 22.453 22.4183 22.3834 22.3472 22.3113 22.2744 22.2383 22.2013 22.1658 22.1294 22.0952 22.06 22.0278 21.9942 21.9646 21.9329 21.9063 21.8768 21.8535 21.8264 21.8066 21.7819 21.7658 21.7436 21.731 21.7112 21.7021 21.6849 21.6791 21.6643 21.6616 21.6494 21.6496 21.6399 21.6426 21.6356 21.6406 21.6364 21.6434 21.6421 21.6508 21.6528 21.6627 21.6683 21.6786 21.6891 21.6974 21.7178 21.7103 22.4525 22.5311 22.5883 22.6309 22.6628 22.6866 22.7038 22.7156 22.7224 22.7251 22.7238 22.7191 22.711 22.7001 22.6861 22.6697 22.6505 22.6293 22.6056 22.5803 22.5527 22.5239 22.4931 22.4615 22.4283 22.3947 22.3597 22.3249 22.2889 22.2537 22.2175 22.1826 22.1468 22.1131 22.0782 22.0463 22.0128 21.9833 21.9517 21.9251 21.8955 21.8721 21.8447 21.8248 21.7997 21.7833 21.7606 21.7477 21.7275 21.718 21.7001 21.6938 21.6784 21.6751 21.6622 21.6617 21.6512 21.6532 21.6453 21.6496 21.6444 21.6505 21.6482 21.6558 21.6567 21.6653 21.6699 21.6787 21.6882 21.6947 21.7138 21.7069 22.4366 22.5011 22.5527 22.5935 22.6255 22.6507 22.6698 22.684 22.6936 22.6992 22.701 22.6995 22.6946 22.6868 22.676 22.6627 22.6465 22.6283 22.6074 22.5848 22.5598 22.5335 22.505 22.4756 22.4444 22.4127 22.3794 22.3462 22.3116 22.2777 22.2425 22.2087 22.1737 22.1407 22.1063 22.075 22.0418 22.0127 21.9811 21.9547 21.925 21.9016 21.874 21.8539 21.8285 21.8118 21.7887 21.7754 21.7546 21.7446 21.7261 21.7193 21.7031 21.6992 21.6854 21.6842 21.6729 21.674 21.6652 21.6684 21.6623 21.6672 21.664 21.6702 21.6701 21.6772 21.6807 21.6877 21.6962 21.7007 21.7183 21.7118 22.4254 22.4754 22.5194 22.5567 22.5876 22.6131 22.6336 22.6498 22.662 22.6707 22.6757 22.6777 22.6764 22.6724 22.6653 22.6558 22.6433 22.6288 22.6115 22.5924 22.5708 22.5477 22.5223 22.4958 22.4674 22.4382 22.4073 22.3763 22.3437 22.3116 22.278 22.2457 22.2119 22.1801 22.1466 22.1162 22.0835 22.055 22.0237 21.9977 21.968 21.9448 21.917 21.8969 21.8712 21.8544 21.8308 21.8172 21.7958 21.7853 21.7662 21.7588 21.7419 21.7373 21.7227 21.7206 21.7085 21.7086 21.6989 21.701 21.694 21.6976 21.6934 21.6982 21.6971 21.7024 21.7049 21.71 21.7174 21.7199 21.7358 21.7292 22.4185 22.4562 22.4919 22.5241 22.5523 22.5768 22.5977 22.6153 22.6295 22.6408 22.649 22.6545 22.6569 22.6569 22.6539 22.6487 22.6405 22.6303 22.6173 22.6024 22.5849 22.5659 22.5443 22.5216 22.4966 22.4709 22.4431 22.4151 22.3851 22.3556 22.3243 22.2941 22.262 22.232 22.1999 22.1707 22.1391 22.1116 22.0809 22.0555 22.0262 22.0034 21.9758 21.9558 21.93 21.9131 21.8892 21.8753 21.8535 21.8427 21.823 21.815 21.7975 21.7921 21.7769 21.7739 21.7611 21.7602 21.7498 21.7506 21.7428 21.745 21.74 21.7432 21.7412 21.7448 21.7464 21.7496 21.7559 21.7566 21.7707 21.7636 22.4146 22.4435 22.4716 22.4983 22.5229 22.5454 22.5654 22.5832 22.5986 22.6119 22.6226 22.6311 22.6371 22.6409 22.6421 22.6412 22.6376 22.632 22.6238 22.6136 22.6009 22.5865 22.5696 22.5513 22.5306 22.5091 22.4852 22.4609 22.4344 22.4083 22.3799 22.3526 22.323 22.2954 22.2653 22.2381 22.208 22.182 22.1525 22.1282 22.0997 22.0777 22.0505 22.031 22.0054 21.9886 21.9648 21.9508 21.9289 21.9177 21.8978 21.8893 21.8715 21.8654 21.8498 21.8459 21.8326 21.8306 21.8197 21.8193 21.811 21.8117 21.8062 21.8077 21.8052 21.807 21.808 21.8093 21.8147 21.8137 21.8264 21.8184 22.4125 22.4359 22.4585 22.4804 22.5013 22.5211 22.5395 22.5567 22.5724 22.5866 22.599 22.6099 22.6187 22.6259 22.6308 22.634 22.6348 22.6338 22.6303 22.6251 22.6174 22.608 22.5961 22.5828 22.567 22.5502 22.5309 22.5112 22.4889 22.4668 22.4422 22.4185 22.3922 22.3677 22.3403 22.3157 22.2879 22.264 22.2363 22.2137 22.1866 22.1657 22.1396 22.1209 22.096 22.0797 22.0564 22.0426 22.021 22.0097 21.9899 21.981 21.9633 21.9566 21.941 21.9362 21.9229 21.9199 21.9089 21.9072 21.8988 21.8982 21.8925 21.8925 21.8898 21.8899 21.8906 21.8902 21.895 21.8924 21.9041 21.8951 22.4114 22.4318 22.4511 22.4697 22.4876 22.5051 22.5218 22.538 22.5533 22.5679 22.5813 22.5937 22.6046 22.6143 22.6223 22.6289 22.6335 22.6367 22.6376 22.637 22.6341 22.6297 22.6228 22.6146 22.6039 22.5922 22.5778 22.5629 22.5454 22.5279 22.5077 22.4882 22.4658 22.445 22.4211 22.3997 22.3749 22.3537 22.3285 22.308 22.283 22.2638 22.2394 22.2219 22.1984 22.1829 22.1607 22.1473 22.1266 22.1154 22.0964 22.0873 22.0701 22.063 22.0479 22.0425 22.0296 22.0257 22.0151 22.0124 22.0043 22.0025 21.997 21.9957 21.9932 21.992 21.9926 21.9909 21.9955 21.9917 22.0028 21.993 22.4109 22.4301 22.4478 22.4647 22.4811 22.4972 22.5129 22.5283 22.5433 22.558 22.5719 22.5853 22.5977 22.6093 22.6195 22.6288 22.6364 22.6429 22.6475 22.6509 22.6521 22.6521 22.6498 22.6464 22.6405 22.6336 22.6242 22.6142 22.6016 22.5888 22.5732 22.5582 22.5401 22.5234 22.5035 22.4858 22.4645 22.4464 22.4244 22.4065 22.3842 22.3671 22.345 22.3291 22.3076 22.2933 22.2728 22.2602 22.2409 22.2301 22.2124 22.2033 22.1874 22.18 22.166 22.1601 22.1482 22.1436 22.1339 22.1304 22.1232 22.1204 22.1157 22.1134 22.1115 22.1093 22.1103 22.1077 22.1125 22.1079 22.119 22.1085 22.4109 22.4301 22.4477 22.4646 22.4809 22.497 22.5126 22.5282 22.5434 22.5585 22.573 22.5872 22.6006 22.6135 22.6253 22.6365 22.6463 22.6553 22.6627 22.6691 22.6737 22.6772 22.6787 22.6793 22.6775 22.675 22.67 22.6644 22.6563 22.648 22.6369 22.6262 22.6125 22.5999 22.5841 22.5701 22.5527 22.5379 22.5193 22.5043 22.4851 22.4704 22.4511 22.4371 22.4181 22.4052 22.3869 22.3753 22.358 22.3478 22.332 22.3232 22.3089 22.3016 22.2892 22.2831 22.2727 22.2677 22.2595 22.2554 22.2495 22.2462 22.2427 22.2398 22.2389 22.2362 22.2381 22.235 22.2405 22.2356 22.2471 22.2366 22.4114 22.4318 22.451 22.4694 22.4872 22.5046 22.5215 22.5381 22.5542 22.5701 22.5855 22.6005 22.6148 22.6287 22.6417 22.6541 22.6654 22.676 22.6853 22.6938 22.7008 22.7069 22.7113 22.7148 22.7164 22.7172 22.7158 22.7139 22.7096 22.7051 22.6981 22.6912 22.6815 22.6726 22.6608 22.6503 22.6366 22.625 22.6099 22.5977 22.5818 22.5694 22.5531 22.5411 22.5248 22.5134 22.4977 22.4872 22.4723 22.4629 22.4492 22.441 22.4288 22.4217 22.4112 22.4052 22.3967 22.3917 22.3852 22.3811 22.3768 22.3733 22.3714 22.3684 22.369 22.3662 22.3695 22.3664 22.3731 22.3684 22.3809 22.3707 22.4126 22.4359 22.4584 22.4801 22.5008 22.5208 22.5398 22.5583 22.5759 22.5931 22.6095 22.6254 22.6405 22.6551 22.6688 22.6819 22.6941 22.7057 22.7161 22.7259 22.7343 22.7421 22.7484 22.7539 22.7578 22.761 22.7624 22.7632 22.7619 22.7604 22.7565 22.7527 22.7465 22.7407 22.7322 22.7247 22.7144 22.7055 22.6937 22.684 22.6712 22.661 22.6476 22.6373 22.6238 22.6139 22.6008 22.5914 22.579 22.5705 22.5592 22.5516 22.5416 22.535 22.5267 22.5211 22.5146 22.5099 22.5054 22.5016 22.4992 22.496 22.4959 22.4933 22.4956 22.4933 22.4982 22.4957 22.5039 22.5 22.5139 22.5047 22.4147 22.4434 22.4714 22.498 22.5229 22.5462 22.568 22.5886 22.6079 22.6263 22.6437 22.6603 22.676 22.691 22.7051 22.7185 22.731 22.743 22.7539 22.7642 22.7734 22.782 22.7894 22.7961 22.8014 22.8062 22.8093 22.812 22.8129 22.8134 22.812 22.8105 22.8068 22.8034 22.7977 22.7925 22.7849 22.7783 22.7692 22.7616 22.7514 22.7431 22.7322 22.7236 22.7126 22.704 22.6933 22.6851 22.6749 22.6674 22.6583 22.6515 22.6437 22.6378 22.6316 22.6266 22.6222 22.6181 22.6156 22.6125 22.6121 22.6097 22.6114 22.6098 22.6138 22.6126 22.6193 22.618 22.628 22.6254 22.6411 22.6331 22.4185 22.4561 22.4917 22.5243 22.5537 22.5805 22.6049 22.6274 22.6481 22.6675 22.6855 22.7025 22.7184 22.7334 22.7474 22.7607 22.7732 22.785 22.7959 22.8062 22.8156 22.8245 22.8322 22.8395 22.8456 22.8512 22.8554 22.8592 22.8614 22.8634 22.8636 22.8637 22.8619 22.8601 22.8564 22.8529 22.8475 22.8425 22.8356 22.8296 22.8215 22.8146 22.8059 22.7986 22.7897 22.7823 22.7736 22.7664 22.7583 22.7517 22.7445 22.7387 22.7328 22.7278 22.7235 22.7194 22.7168 22.7137 22.7131 22.711 22.7124 22.7112 22.7148 22.7144 22.7204 22.7206 22.7291 22.7295 22.7414 22.7406 22.7585 22.7519 22.4254 22.4754 22.5198 22.5583 22.5918 22.6214 22.6477 22.6715 22.6931 22.7129 22.7311 22.748 22.7636 22.7783 22.7919 22.8048 22.8168 22.8281 22.8387 22.8487 22.8578 22.8665 22.8743 22.8817 22.888 22.8939 22.8987 22.9031 22.9062 22.9089 22.9102 22.9112 22.9107 22.91 22.9077 22.9054 22.9015 22.8978 22.8924 22.8875 22.8811 22.8753 22.8682 22.862 22.8547 22.8483 22.8412 22.835 22.8285 22.8228 22.8173 22.8123 22.8082 22.804 22.8014 22.7983 22.7975 22.7954 22.7966 22.7956 22.7988 22.799 22.8044 22.8055 22.8133 22.8153 22.8256 22.828 22.8418 22.8431 22.8634 22.8579 22.4366 22.5012 22.554 22.5974 22.6339 22.6652 22.6927 22.717 22.7387 22.7584 22.7763 22.7927 22.8078 22.8219 22.8348 22.847 22.8584 22.8691 22.8791 22.8886 22.8973 22.9056 22.9132 22.9204 22.9267 22.9326 22.9376 22.9422 22.9457 22.9488 22.9507 22.9523 22.9526 22.9526 22.9512 22.9497 22.9468 22.9439 22.9396 22.9355 22.9303 22.9253 22.9195 22.914 22.908 22.9023 22.8965 22.8911 22.886 22.881 22.8769 22.8728 22.87 22.8668 22.8656 22.8635 22.8642 22.8632 22.8659 22.8662 22.871 22.8726 22.8796 22.8824 22.8918 22.8957 22.9078 22.9123 22.9279 22.9314 22.9542 22.9493 22.4525 22.5317 22.5911 22.6378 22.6759 22.7081 22.7357 22.7599 22.7814 22.8005 22.8178 22.8335 22.8479 22.8612 22.8734 22.8848 22.8955 22.9055 22.9148 22.9237 22.932 22.9398 22.947 22.9539 22.96 22.9658 22.9708 22.9754 22.979 22.9824 22.9846 22.9865 22.9872 22.9876 22.9868 22.9858 22.9835 22.9812 22.9776 22.9741 22.9697 22.9653 22.9603 22.9555 22.9504 22.9454 22.9405 22.9358 22.9316 22.9274 22.9244 22.9209 22.9193 22.9169 22.917 22.9158 22.9177 22.9178 22.9218 22.9233 22.9294 22.9324 22.9408 22.9452 22.9561 22.9618 22.9755 22.9821 22.9994 23.0052 23.0301 23.0253 22.472 22.5636 22.6273 22.6756 22.7144 22.7465 22.7739 22.7976 22.8184 22.8369 22.8534 22.8684 22.882 22.8944 22.9059 22.9166 22.9266 22.9359 22.9447 22.953 22.9608 22.9682 22.975 22.9815 22.9874 22.993 22.9979 23.0024 23.0061 23.0094 23.0118 23.0138 23.0148 23.0154 23.015 23.0142 23.0124 23.0104 23.0073 23.0042 23.0003 22.9964 22.992 22.9876 22.9831 22.9786 22.9745 22.9702 22.9669 22.9632 22.961 22.9582 22.9575 22.9558 22.9568 22.9564 22.9593 22.9604 22.9654 22.968 22.9753 22.9795 22.9891 22.995 23.0071 23.0145 23.0295 23.0379 23.0566 23.0646 23.0912 23.0862 22.493 22.5935 22.6594 22.7082 22.7468 22.7786 22.8054 22.8285 22.8486 22.8663 22.8821 22.8964 22.9092 22.921 22.9319 22.9419 22.9513 22.9601 22.9683 22.9762 22.9835 22.9905 22.997 23.0032 23.0089 23.0142 23.0189 23.0234 23.027 23.0303 23.0327 23.0348 23.0359 23.0367 23.0364 23.0358 23.0342 23.0324 23.0297 23.0268 23.0233 23.0197 23.0157 23.0116 23.0076 23.0034 22.9998 22.996 22.9932 22.99 22.9884 22.9861 22.9861 22.985 22.9867 22.987 22.9907 22.9925 22.9984 23.0019 23.0101 23.0153 23.0259 23.0329 23.0461 23.0548 23.0709 23.0809 23.1008 23.1106 23.1384 23.1331 22.5128 22.6187 22.6855 22.7342 22.7724 22.8036 22.8298 22.8522 22.8716 22.8888 22.9039 22.9176 22.9299 22.9411 22.9514 22.961 22.9698 22.9782 22.986 22.9935 23.0005 23.0072 23.0134 23.0194 23.0248 23.03 23.0346 23.0389 23.0425 23.0457 23.0482 23.0502 23.0514 23.0522 23.052 23.0515 23.0501 23.0484 23.0459 23.0432 23.0399 23.0364 23.0327 23.0289 23.0252 23.0213 23.0181 23.0145 23.0121 23.0093 23.0081 23.0062 23.0067 23.006 23.0083 23.0091 23.0134 23.0158 23.0223 23.0265 23.0354 23.0413 23.0527 23.0606 23.0747 23.0844 23.1014 23.1126 23.1333 23.1446 23.1733 23.1675 22.5293 22.638 22.7049 22.7533 22.791 22.8217 22.8473 22.8692 22.8881 22.9048 22.9195 22.9326 22.9445 22.9553 22.9652 22.9744 22.983 22.991 22.9985 23.0057 23.0124 23.0189 23.0249 23.0307 23.036 23.0411 23.0455 23.0498 23.0533 23.0565 23.0589 23.061 23.0621 23.0629 23.0628 23.0624 23.0611 23.0594 23.0571 23.0544 23.0513 23.048 23.0444 23.0407 23.0372 23.0335 23.0305 23.0272 23.0251 23.0224 23.0216 23.02 23.0208 23.0204 23.0231 23.0242 23.029 23.0318 23.0388 23.0434 23.0528 23.0594 23.0713 23.0798 23.0945 23.1049 23.1226 23.1346 23.1561 23.1684 23.1976 23.1915 22.5415 22.6514 22.7181 22.7661 22.8034 22.8336 22.8589 22.8804 22.899 22.9153 22.9297 22.9425 22.9541 22.9646 22.9743 22.9832 22.9915 22.9993 23.0066 23.0136 23.0202 23.0265 23.0324 23.0381 23.0433 23.0482 23.0526 23.0568 23.0602 23.0634 23.0658 23.0679 23.069 23.0699 23.0698 23.0694 23.0681 23.0665 23.0642 23.0616 23.0586 23.0553 23.0519 23.0483 23.0449 23.0413 23.0384 23.0352 23.0333 23.0308 23.0302 23.0287 23.0297 23.0296 23.0325 23.0339 23.0389 23.042 23.0493 23.0543 23.064 23.0709 23.0832 23.0922 23.1072 23.1181 23.1362 23.1489 23.1707 23.1838 23.2133 23.207 22.5491 22.6593 22.7258 22.7735 22.8106 22.8406 22.8656 22.8869 22.9053 22.9213 22.9355 22.9482 22.9596 22.9699 22.9794 22.9882 22.9964 23.0041 23.0113 23.0182 23.0247 23.0309 23.0367 23.0423 23.0474 23.0523 23.0567 23.0608 23.0642 23.0674 23.0697 23.0718 23.0729 23.0738 23.0737 23.0733 23.072 23.0705 23.0682 23.0656 23.0626 23.0594 23.0561 23.0525 23.0492 23.0457 23.0429 23.0398 23.0379 23.0355 23.035 23.0337 23.0348 23.0348 23.0378 23.0394 23.0445 23.0478 23.0552 23.0604 23.0703 23.0774 23.0899 23.0991 23.1144 23.1256 23.144 23.1569 23.1791 23.1925 23.2223 23.2158 22.5525 22.6628 22.7292 22.7767 22.8136 22.8436 22.8685 22.8896 22.9079 22.9239 22.938 22.9506 22.9619 22.9722 22.9816 22.9904 22.9985 23.0061 23.0133 23.0201 23.0265 23.0327 23.0385 23.0441 23.0492 23.0541 23.0584 23.0625 23.0659 23.069 23.0714 23.0734 23.0746 23.0754 23.0753 23.0749 23.0737 23.0721 23.0699 23.0673 23.0644 23.0611 23.0578 23.0543 23.051 23.0475 23.0448 23.0416 23.0399 23.0375 23.037 23.0357 23.0369 23.0369 23.04 23.0416 23.0468 23.0502 23.0577 23.063 23.0729 23.0802 23.0928 23.1021 23.1174 23.1288 23.1472 23.1603 23.1826 23.1962 23.226 23.2196 22.4999 22.5824 22.6306 22.6608 22.6793 22.6894 22.6928 22.6909 22.6843 22.6738 22.6597 22.6426 22.6224 22.6 22.5748 22.5478 22.5184 22.4877 22.4549 22.4211 22.3857 22.3496 22.3121 22.2744 22.2357 22.1972 22.1579 22.1192 22.0801 22.042 22.0036 21.9669 21.9297 21.8949 21.8594 21.827 21.7936 21.7641 21.733 21.7068 21.6781 21.6554 21.6292 21.6101 21.5863 21.571 21.5497 21.538 21.519 21.5109 21.4942 21.4895 21.4752 21.4737 21.4616 21.4631 21.4533 21.4576 21.4501 21.4569 21.452 21.4609 21.4586 21.4695 21.4701 21.4824 21.4865 21.4993 21.5081 21.5192 21.5365 21.5311 22.4964 22.5791 22.6275 22.6581 22.6768 22.6872 22.6908 22.6891 22.6826 22.6724 22.6584 22.6415 22.6214 22.5991 22.574 22.5471 22.5179 22.4872 22.4545 22.4208 22.3854 22.3494 22.312 22.2743 22.2357 22.1972 22.1579 22.1193 22.0802 22.0421 22.0037 21.967 21.9298 21.895 21.8595 21.8271 21.7937 21.7642 21.7331 21.7068 21.6781 21.6554 21.6291 21.61 21.5863 21.5709 21.5495 21.5378 21.5188 21.5106 21.4939 21.4892 21.4748 21.4732 21.4611 21.4625 21.4527 21.4569 21.4494 21.4561 21.451 21.4599 21.4575 21.4683 21.4689 21.481 21.485 21.4977 21.5064 21.5173 21.5346 21.5293 22.489 22.5715 22.6205 22.6517 22.6711 22.6821 22.6862 22.6851 22.6791 22.6693 22.6557 22.6392 22.6194 22.5974 22.5726 22.546 22.517 22.4866 22.4541 22.4206 22.3853 22.3494 22.3122 22.2746 22.2361 22.1976 22.1585 22.1199 22.0808 22.0428 22.0045 21.9677 21.9306 21.8957 21.8603 21.8279 21.7944 21.7649 21.7337 21.7075 21.6787 21.6559 21.6296 21.6104 21.5865 21.5711 21.5496 21.5378 21.5187 21.5105 21.4937 21.4888 21.4743 21.4727 21.4603 21.4617 21.4516 21.4558 21.448 21.4546 21.4493 21.4581 21.4555 21.4661 21.4663 21.4783 21.482 21.4944 21.5029 21.5134 21.5305 21.5256 22.4776 22.5588 22.6086 22.6409 22.6614 22.6734 22.6786 22.6784 22.6732 22.6642 22.6514 22.6356 22.6165 22.5951 22.5708 22.5447 22.5162 22.4862 22.4541 22.421 22.386 22.3504 22.3134 22.2761 22.2378 22.1995 22.1605 22.122 22.0831 22.0452 22.0068 21.9701 21.933 21.8982 21.8627 21.8303 21.7968 21.7672 21.7359 21.7096 21.6807 21.6579 21.6314 21.6122 21.5881 21.5726 21.5509 21.539 21.5197 21.5113 21.4943 21.4893 21.4745 21.4727 21.4601 21.4613 21.4509 21.4548 21.4467 21.4531 21.4475 21.456 21.4529 21.4632 21.4631 21.4746 21.4779 21.4899 21.4979 21.5079 21.5246 21.5203 22.4628 22.5408 22.5912 22.6249 22.647 22.6607 22.6673 22.6686 22.6649 22.6572 22.6456 22.6309 22.6129 22.5925 22.5692 22.544 22.5162 22.487 22.4556 22.423 22.3887 22.3536 22.317 22.2801 22.2421 22.2042 22.1654 22.1272 22.0883 22.0506 22.0124 21.9758 21.9386 21.9039 21.8683 21.8359 21.8023 21.7727 21.7413 21.7149 21.6858 21.6629 21.6362 21.6168 21.5925 21.5768 21.5548 21.5428 21.5231 21.5146 21.4971 21.4919 21.4767 21.4747 21.4617 21.4626 21.4517 21.4554 21.4468 21.4528 21.4466 21.4547 21.451 21.4609 21.4601 21.4711 21.4738 21.4851 21.4924 21.5016 21.5176 21.5142 22.4466 22.5181 22.5683 22.60