# vtk DataFile Version 2.0
Fracciones
ASCII

DATASET STRUCTURED_GRID
DIMENSIONS   72   30   40

POINTS   86400   double
0.00234671   9.86017e-05   0.00104846
0.00713993   9.86017e-05   0.00104846
0.0121352   9.86017e-05   0.00104846
0.0173374   9.86017e-05   0.00104846
0.0227511   9.86017e-05   0.00104846
0.0283806   9.86017e-05   0.00104846
0.0342299   9.86017e-05   0.00104846
0.0403025   9.86017e-05   0.00104846
0.0466016   9.86017e-05   0.00104846
0.0531298   9.86017e-05   0.00104846
0.0598891   9.86017e-05   0.00104846
0.0668812   9.86017e-05   0.00104846
0.074107   9.86017e-05   0.00104846
0.0815665   9.86017e-05   0.00104846
0.0892593   9.86017e-05   0.00104846
0.097184   9.86017e-05   0.00104846
0.105339   9.86017e-05   0.00104846
0.11372   9.86017e-05   0.00104846
0.122325   9.86017e-05   0.00104846
0.131147   9.86017e-05   0.00104846
0.140183   9.86017e-05   0.00104846
0.149424   9.86017e-05   0.00104846
0.158863   9.86017e-05   0.00104846
0.168492   9.86017e-05   0.00104846
0.178301   9.86017e-05   0.00104846
0.18828   9.86017e-05   0.00104846
0.198417   9.86017e-05   0.00104846
0.208701   9.86017e-05   0.00104846
0.219117   9.86017e-05   0.00104846
0.229653   9.86017e-05   0.00104846
0.240294   9.86017e-05   0.00104846
0.251025   9.86017e-05   0.00104846
0.261831   9.86017e-05   0.00104846
0.272694   9.86017e-05   0.00104846
0.2836   9.86017e-05   0.00104846
0.29453   9.86017e-05   0.00104846
0.30547   9.86017e-05   0.00104846
0.3164   9.86017e-05   0.00104846
0.327306   9.86017e-05   0.00104846
0.338169   9.86017e-05   0.00104846
0.348975   9.86017e-05   0.00104846
0.359706   9.86017e-05   0.00104846
0.370347   9.86017e-05   0.00104846
0.380883   9.86017e-05   0.00104846
0.391299   9.86017e-05   0.00104846
0.401583   9.86017e-05   0.00104846
0.41172   9.86017e-05   0.00104846
0.421699   9.86017e-05   0.00104846
0.431508   9.86017e-05   0.00104846
0.441137   9.86017e-05   0.00104846
0.450576   9.86017e-05   0.00104846
0.459817   9.86017e-05   0.00104846
0.468853   9.86017e-05   0.00104846
0.477675   9.86017e-05   0.00104846
0.48628   9.86017e-05   0.00104846
0.494661   9.86017e-05   0.00104846
0.502816   9.86017e-05   0.00104846
0.510741   9.86017e-05   0.00104846
0.518434   9.86017e-05   0.00104846
0.525893   9.86017e-05   0.00104846
0.533119   9.86017e-05   0.00104846
0.540111   9.86017e-05   0.00104846
0.54687   9.86017e-05   0.00104846
0.553398   9.86017e-05   0.00104846
0.559697   9.86017e-05   0.00104846
0.56577   9.86017e-05   0.00104846
0.571619   9.86017e-05   0.00104846
0.577249   9.86017e-05   0.00104846
0.582663   9.86017e-05   0.00104846
0.587865   9.86017e-05   0.00104846
0.59286   9.86017e-05   0.00104846
0.597653   9.86017e-05   0.00104846
0.00234671   0.00031676   0.00104846
0.00713993   0.00031676   0.00104846
0.0121352   0.00031676   0.00104846
0.0173374   0.00031676   0.00104846
0.0227511   0.00031676   0.00104846
0.0283806   0.00031676   0.00104846
0.0342299   0.00031676   0.00104846
0.0403025   0.00031676   0.00104846
0.0466016   0.00031676   0.00104846
0.0531298   0.00031676   0.00104846
0.0598891   0.00031676   0.00104846
0.0668812   0.00031676   0.00104846
0.074107   0.00031676   0.00104846
0.0815665   0.00031676   0.00104846
0.0892593   0.00031676   0.00104846
0.097184   0.00031676   0.00104846
0.105339   0.00031676   0.00104846
0.11372   0.00031676   0.00104846
0.122325   0.00031676   0.00104846
0.131147   0.00031676   0.00104846
0.140183   0.00031676   0.00104846
0.149424   0.00031676   0.00104846
0.158863   0.00031676   0.00104846
0.168492   0.00031676   0.00104846
0.178301   0.00031676   0.00104846
0.18828   0.00031676   0.00104846
0.198417   0.00031676   0.00104846
0.208701   0.00031676   0.00104846
0.219117   0.00031676   0.00104846
0.229653   0.00031676   0.00104846
0.240294   0.00031676   0.00104846
0.251025   0.00031676   0.00104846
0.261831   0.00031676   0.00104846
0.272694   0.00031676   0.00104846
0.2836   0.00031676   0.00104846
0.29453   0.00031676   0.00104846
0.30547   0.00031676   0.00104846
0.3164   0.00031676   0.00104846
0.327306   0.00031676   0.00104846
0.338169   0.00031676   0.00104846
0.348975   0.00031676   0.00104846
0.359706   0.00031676   0.00104846
0.370347   0.00031676   0.00104846
0.380883   0.00031676   0.00104846
0.391299   0.00031676   0.00104846
0.401583   0.00031676   0.00104846
0.41172   0.00031676   0.00104846
0.421699   0.00031676   0.00104846
0.431508   0.00031676   0.00104846
0.441137   0.00031676   0.00104846
0.450576   0.00031676   0.00104846
0.459817   0.00031676   0.00104846
0.468853   0.00031676   0.00104846
0.477675   0.00031676   0.00104846
0.48628   0.00031676   0.00104846
0.494661   0.00031676   0.00104846
0.502816   0.00031676   0.00104846
0.510741   0.00031676   0.00104846
0.518434   0.00031676   0.00104846
0.525893   0.00031676   0.00104846
0.533119   0.00031676   0.00104846
0.540111   0.00031676   0.00104846
0.54687   0.00031676   0.00104846
0.553398   0.00031676   0.00104846
0.559697   0.00031676   0.00104846
0.56577   0.00031676   0.00104846
0.571619   0.00031676   0.00104846
0.577249   0.00031676   0.00104846
0.582663   0.00031676   0.00104846
0.587865   0.00031676   0.00104846
0.59286   0.00031676   0.00104846
0.597653   0.00031676   0.00104846
0.00234671   0.000580617   0.00104846
0.00713993   0.000580617   0.00104846
0.0121352   0.000580617   0.00104846
0.0173374   0.000580617   0.00104846
0.0227511   0.000580617   0.00104846
0.0283806   0.000580617   0.00104846
0.0342299   0.000580617   0.00104846
0.0403025   0.000580617   0.00104846
0.0466016   0.000580617   0.00104846
0.0531298   0.000580617   0.00104846
0.0598891   0.000580617   0.00104846
0.0668812   0.000580617   0.00104846
0.074107   0.000580617   0.00104846
0.0815665   0.000580617   0.00104846
0.0892593   0.000580617   0.00104846
0.097184   0.000580617   0.00104846
0.105339   0.000580617   0.00104846
0.11372   0.000580617   0.00104846
0.122325   0.000580617   0.00104846
0.131147   0.000580617   0.00104846
0.140183   0.000580617   0.00104846
0.149424   0.000580617   0.00104846
0.158863   0.000580617   0.00104846
0.168492   0.000580617   0.00104846
0.178301   0.000580617   0.00104846
0.18828   0.000580617   0.00104846
0.198417   0.000580617   0.00104846
0.208701   0.000580617   0.00104846
0.219117   0.000580617   0.00104846
0.229653   0.000580617   0.00104846
0.240294   0.000580617   0.00104846
0.251025   0.000580617   0.00104846
0.261831   0.000580617   0.00104846
0.272694   0.000580617   0.00104846
0.2836   0.000580617   0.00104846
0.29453   0.000580617   0.00104846
0.30547   0.000580617   0.00104846
0.3164   0.000580617   0.00104846
0.327306   0.000580617   0.00104846
0.338169   0.000580617   0.00104846
0.348975   0.000580617   0.00104846
0.359706   0.000580617   0.00104846
0.370347   0.000580617   0.00104846
0.380883   0.000580617   0.00104846
0.391299   0.000580617   0.00104846
0.401583   0.000580617   0.00104846
0.41172   0.000580617   0.00104846
0.421699   0.000580617   0.00104846
0.431508   0.000580617   0.00104846
0.441137   0.000580617   0.00104846
0.450576   0.000580617   0.00104846
0.459817   0.000580617   0.00104846
0.468853   0.000580617   0.00104846
0.477675   0.000580617   0.00104846
0.48628   0.000580617   0.00104846
0.494661   0.000580617   0.00104846
0.502816   0.000580617   0.00104846
0.510741   0.000580617   0.00104846
0.518434   0.000580617   0.00104846
0.525893   0.000580617   0.00104846
0.533119   0.000580617   0.00104846
0.540111   0.000580617   0.00104846
0.54687   0.000580617   0.00104846
0.553398   0.000580617   0.00104846
0.559697   0.000580617   0.00104846
0.56577   0.000580617   0.00104846
0.571619   0.000580617   0.00104846
0.577249   0.000580617   0.00104846
0.582663   0.000580617   0.00104846
0.587865   0.000580617   0.00104846
0.59286   0.000580617   0.00104846
0.597653   0.000580617   0.00104846
0.00234671   0.000898112   0.00104846
0.00713993   0.000898112   0.00104846
0.0121352   0.000898112   0.00104846
0.0173374   0.000898112   0.00104846
0.0227511   0.000898112   0.00104846
0.0283806   0.000898112   0.00104846
0.0342299   0.000898112   0.00104846
0.0403025   0.000898112   0.00104846
0.0466016   0.000898112   0.00104846
0.0531298   0.000898112   0.00104846
0.0598891   0.000898112   0.00104846
0.0668812   0.000898112   0.00104846
0.074107   0.000898112   0.00104846
0.0815665   0.000898112   0.00104846
0.0892593   0.000898112   0.00104846
0.097184   0.000898112   0.00104846
0.105339   0.000898112   0.00104846
0.11372   0.000898112   0.00104846
0.122325   0.000898112   0.00104846
0.131147   0.000898112   0.00104846
0.140183   0.000898112   0.00104846
0.149424   0.000898112   0.00104846
0.158863   0.000898112   0.00104846
0.168492   0.000898112   0.00104846
0.178301   0.000898112   0.00104846
0.18828   0.000898112   0.00104846
0.198417   0.000898112   0.00104846
0.208701   0.000898112   0.00104846
0.219117   0.000898112   0.00104846
0.229653   0.000898112   0.00104846
0.240294   0.000898112   0.00104846
0.251025   0.000898112   0.00104846
0.261831   0.000898112   0.00104846
0.272694   0.000898112   0.00104846
0.2836   0.000898112   0.00104846
0.29453   0.000898112   0.00104846
0.30547   0.000898112   0.00104846
0.3164   0.000898112   0.00104846
0.327306   0.000898112   0.00104846
0.338169   0.000898112   0.00104846
0.348975   0.000898112   0.00104846
0.359706   0.000898112   0.00104846
0.370347   0.000898112   0.00104846
0.380883   0.000898112   0.00104846
0.391299   0.000898112   0.00104846
0.401583   0.000898112   0.00104846
0.41172   0.000898112   0.00104846
0.421699   0.000898112   0.00104846
0.431508   0.000898112   0.00104846
0.441137   0.000898112   0.00104846
0.450576   0.000898112   0.00104846
0.459817   0.000898112   0.00104846
0.468853   0.000898112   0.00104846
0.477675   0.000898112   0.00104846
0.48628   0.000898112   0.00104846
0.494661   0.000898112   0.00104846
0.502816   0.000898112   0.00104846
0.510741   0.000898112   0.00104846
0.518434   0.000898112   0.00104846
0.525893   0.000898112   0.00104846
[...]
POINT_DATA   86400
SCALARS Fracciones double
LOOKUP_TABLE   Fracciones

0.00961707 0.00966154 0.00969052 0.00971356 0.00973381 0.00975238 0.00977015 0.00978729 0.00980431 0.00982109 0.00983809 0.00985502 0.00987238 0.00988971 0.0099076 0.00992546 0.00994396 0.00996238 0.00998148 0.0100004 0.01002 0.0100394 0.0100595 0.0100792 0.0100994 0.0101193 0.0101397 0.0101595 0.0101798 0.0101995 0.0102196 0.010239 0.0102586 0.0102775 0.0102966 0.010315 0.0103334 0.0103511 0.0103688 0.0103858 0.0104028 0.010419 0.0104354 0.0104508 0.0104665 0.0104812 0.0104964 0.0105104 0.0105251 0.0105386 0.0105529 0.0105659 0.0105799 0.0105926 0.0106064 0.0106188 0.0106326 0.0106449 0.0106586 0.0106709 0.0106847 0.0106972 0.0107111 0.0107239 0.010738 0.0107511 0.0107655 0.0107791 0.010794 0.0108078 0.0108245 0.01083 0.00961584 0.00966026 0.00968926 0.00971232 0.00973258 0.00975117 0.00976896 0.0097861 0.00980314 0.00981993 0.00983695 0.00985388 0.00987125 0.00988859 0.0099065 0.00992437 0.00994288 0.00996131 0.00998042 0.00999936 0.010019 0.0100384 0.0100584 0.0100781 0.0100984 0.0101183 0.0101387 0.0101586 0.0101788 0.0101986 0.0102186 0.010238 0.0102576 0.0102766 0.0102956 0.010314 0.0103324 0.0103501 0.0103679 0.0103848 0.0104019 0.010418 0.0104344 0.0104498 0.0104655 0.0104802 0.0104954 0.0105094 0.0105241 0.0105376 0.0105519 0.0105649 0.0105789 0.0105915 0.0106054 0.0106178 0.0106315 0.0106438 0.0106575 0.0106698 0.0106835 0.010696 0.0107098 0.0107226 0.0107366 0.0107498 0.0107641 0.0107777 0.0107925 0.0108062 0.0108229 0.0108284 0.00961311 0.00965733 0.00968634 0.00970942 0.00972971 0.00974832 0.00976612 0.00978329 0.00980035 0.00981716 0.0098342 0.00985116 0.00986855 0.00988591 0.00990383 0.00992172 0.00994025 0.00995869 0.00997782 0.00999679 0.0100164 0.0100358 0.0100559 0.0100756 0.0100959 0.0101158 0.0101362 0.0101561 0.0101764 0.0101961 0.0102162 0.0102356 0.0102552 0.0102742 0.0102933 0.0103116 0.0103301 0.0103478 0.0103655 0.0103825 0.0103995 0.0104157 0.0104321 0.0104475 0.0104632 0.0104779 0.010493 0.0105071 0.0105217 0.0105352 0.0105495 0.0105624 0.0105764 0.010589 0.0106028 0.0106151 0.0106288 0.0106411 0.0106547 0.010667 0.0106806 0.010693 0.0107068 0.0107195 0.0107335 0.0107465 0.0107607 0.0107742 0.0107889 0.0108025 0.0108191 0.0108247 0.00960869 0.00965239 0.00968134 0.00970442 0.00972471 0.00974333 0.00976116 0.00977834 0.00979542 0.00981225 0.00982931 0.00984629 0.00986371 0.00988109 0.00989904 0.00991695 0.0099355 0.00995397 0.00997312 0.00999211 0.0100118 0.0100312 0.0100513 0.010071 0.0100914 0.0101113 0.0101317 0.0101516 0.010172 0.0101917 0.0102118 0.0102312 0.0102509 0.0102699 0.010289 0.0103073 0.0103258 0.0103435 0.0103613 0.0103782 0.0103953 0.0104115 0.0104278 0.0104432 0.0104589 0.0104736 0.0104887 0.0105027 0.0105174 0.0105308 0.010545 0.0105579 0.0105719 0.0105844 0.0105982 0.0106104 0.010624 0.0106362 0.0106497 0.0106619 0.0106755 0.0106878 0.0107014 0.010714 0.0107278 0.0107407 0.0107548 0.010768 0.0107826 0.0107959 0.0108124 0.0108182 0.00960263 0.00964518 0.0096739 0.00969689 0.00971714 0.00973573 0.00975353 0.00977071 0.00978779 0.00980462 0.00982168 0.00983867 0.0098561 0.00987349 0.00989146 0.00990938 0.00992796 0.00994645 0.00996563 0.00998464 0.0100044 0.0100238 0.0100439 0.0100637 0.0100841 0.010104 0.0101245 0.0101444 0.0101648 0.0101846 0.0102047 0.0102242 0.0102438 0.0102628 0.010282 0.0103004 0.0103189 0.0103366 0.0103544 0.0103713 0.0103884 0.0104046 0.0104209 0.0104363 0.010452 0.0104667 0.0104818 0.0104958 0.0105104 0.0105237 0.0105379 0.0105508 0.0105647 0.0105771 0.0105908 0.0106029 0.0106164 0.0106285 0.0106419 0.0106539 0.0106673 0.0106794 0.0106929 0.0107053 0.0107189 0.0107315 0.0107454 0.0107584 0.0107727 0.0107857 0.010802 0.0108081 0.0095953 0.00963572 0.00966386 0.00968658 0.00970665 0.00972511 0.00974281 0.00975991 0.00977692 0.00979369 0.00981072 0.00982767 0.00984507 0.00986245 0.0098804 0.00989832 0.0099169 0.00993539 0.00995458 0.00997361 0.00999333 0.0100128 0.010033 0.0100528 0.0100732 0.0100931 0.0101136 0.0101336 0.010154 0.0101739 0.010194 0.0102135 0.0102333 0.0102523 0.0102715 0.0102899 0.0103085 0.0103262 0.010344 0.010361 0.0103781 0.0103943 0.0104107 0.010426 0.0104418 0.0104564 0.0104715 0.0104854 0.0105 0.0105132 0.0105274 0.0105401 0.010554 0.0105663 0.0105798 0.0105919 0.0106052 0.0106171 0.0106304 0.0106422 0.0106554 0.0106673 0.0106805 0.0106926 0.010706 0.0107183 0.0107319 0.0107445 0.0107585 0.0107711 0.010787 0.0107935 0.00958739 0.00962441 0.00965141 0.00967352 0.00969318 0.00971131 0.00972875 0.00974563 0.00976245 0.00977906 0.00979595 0.00981278 0.00983008 0.00984736 0.00986524 0.00988309 0.00990162 0.00992006 0.00993922 0.00995822 0.00997794 0.00999741 0.0100176 0.0100374 0.0100578 0.0100778 0.0100983 0.0101184 0.0101388 0.0101587 0.0101789 0.0101985 0.0102182 0.0102373 0.0102566 0.0102751 0.0102936 0.0103114 0.0103293 0.0103463 0.0103634 0.0103796 0.010396 0.0104114 0.0104271 0.0104417 0.0104568 0.0104707 0.0104852 0.0104984 0.0105125 0.0105252 0.0105389 0.0105511 0.0105645 0.0105764 0.0105896 0.0106012 0.0106143 0.0106259 0.0106389 0.0106505 0.0106634 0.0106752 0.0106882 0.0107002 0.0107133 0.0107255 0.0107391 0.0107511 0.0107665 0.0107735 0.00957986 0.00961216 0.0096372 0.0096582 0.00967707 0.00969458 0.00971151 0.00972793 0.00974436 0.00976063 0.00977721 0.00979376 0.00981082 0.00982788 0.00984556 0.00986323 0.0098816 0.00989991 0.00991895 0.00993786 0.00995749 0.0099769 0.00999699 0.0100168 0.0100372 0.0100572 0.0100777 0.0100978 0.0101182 0.0101382 0.0101584 0.010178 0.0101978 0.010217 0.0102363 0.0102548 0.0102735 0.0102913 0.0103093 0.0103263 0.0103435 0.0103597 0.0103762 0.0103916 0.0104073 0.0104219 0.010437 0.0104508 0.0104653 0.0104784 0.0104925 0.010505 0.0105186 0.0105306 0.0105439 0.0105556 0.0105686 0.01058 0.0105929 0.0106042 0.0106169 0.0106281 0.0106408 0.0106521 0.0106648 0.0106763 0.010689 0.0107007 0.0107138 0.0107252 0.01074 0.0107474 0.00957355 0.0096002 0.00962244 0.00964169 0.00965927 0.00967574 0.00969179 0.00970743 0.00972319 0.00973883 0.00975486 0.0097709 0.00978749 0.00980412 0.00982141 0.00983873 0.00985677 0.00987479 0.00989357 0.00991224 0.00993166 0.00995089 0.00997083 0.00999048 0.0100108 0.0100307 0.0100512 0.0100712 0.0100916 0.0101115 0.0101318 0.0101514 0.0101713 0.0101905 0.0102099 0.0102285 0.0102472 0.0102651 0.0102831 0.0103002 0.0103174 0.0103337 0.0103502 0.0103656 0.0103814 0.0103959 0.0104111 0.0104248 0.0104393 0.0104523 0.0104664 0.0104787 0.0104923 0.0105041 0.0105173 0.0105288 0.0105416 0.0105528 0.0105654 0.0105763 0.0105888 0.0105997 0.010612 0.0106229 0.0106351 0.0106461 0.0106584 0.0106695 0.010682 0.0106928 0.0107068 0.0107146 0.00956895 0.00958983 0.00960861 0.00962549 0.00964126 0.00965623 0.00967097 0.00968544 0.00970014 0.00971482 0.00972996 0.00974517 0.009761 0.00977691 0.00979355 0.00981025 0.00982772 0.00984521 0.0098635 0.00988173 0.00990075 0.00991961 0.00993923 0.00995859 0.00997864 0.00999834 0.0100186 0.0100385 0.0100588 0.0100786 0.0100988 0.0101184 0.0101383 0.0101575 0.0101768 0.0101955 0.0102142 0.0102322 0.0102502 0.0102674 0.0102847 0.010301 0.0103176 0.010333 0.0103488 0.0103634 0.0103785 0.0103922 0.0104068 0.0104197 0.0104337 0.0104459 0.0104594 0.0104711 0.0104842 0.0104954 0.0105081 0.0105189 0.0105314 0.010542 0.0105541 0.0105646 0.0105766 0.010587 0.0105989 0.0106093 0.0106211 0.0106316 0.0106436 0.0106538 0.0106669 0.0106748 0.00956599 0.00958188 0.00959704 0.00961119 0.00962477 0.00963783 0.00965088 0.00966382 0.0096771 0.00969044 0.00970434 0.00971837 0.00973309 0.00974795 0.00976359 0.00977935 0.00979594 0.0098126 0.00983011 0.0098476 0.00986594 0.00988418 0.00990322 0.00992206 0.00994164 0.00996092 0.00998083 0.0100004 0.0100204 0.01004 0.01006 0.0100794 0.0100991 0.0101182 0.0101375 0.0101561 0.0101749 0.0101928 0.0102109 0.010228 0.0102454 0.0102617 0.0102783 0.0102937 0.0103097 0.0103241 0.0103394 0.010353 0.0103676 0.0103804 0.0103944 0.0104065 0.01042 0.0104314 0.0104445 0.0104554 0.010468 0.0104786 0.0104908 0.0105011 0.010513 0.0105231 0.0105347 0.0105447 0.0105562 0.0105661 0.0105775 0.0105874 0.0105988 0.0106084 0.0106207 0.0106285 0.00956428 0.00957648 0.00958845 0.00959994 0.00961122 0.00962224 0.00963341 0.00964458 0.00965619 0.00966793 0.0096803 0.00969285 0.00970615 0.00971964 0.00973396 0.00974845 0.00976381 0.0097793 0.00979568 0.00981211 0.00982944 0.00984673 0.00986488 0.00988289 0.0099017 0.00992027 0.00993954 0.00995848 0.00997802 0.00999712 0.0100167 0.0100358 0.0100552 0.010074 0.0100931 0.0101115 0.0101302 0.0101479 0.010166 0.010183 0.0102004 0.0102166 0.0102333 0.0102486 0.0102646 0.010279 0.0102943 0.0103079 0.0103225 0.0103352 0.0103492 0.0103612 0.0103746 0.0103859 0.0103989 0.0104096 0.0104221 0.0104323 0.0104444 0.0104543 0.0104661 0.0104758 0.0104872 0.0104967 0.0105078 0.0105173 0.0105282 0.0105377 0.0105486 0.0105576 0.0105692 0.0105767 0.00956335 0.00957318 0.00958279 0.00959209 0.00960136 0.00961051 0.00961989 0.00962934 0.00963926 0.00964935 0.00966008 0.00967103 0.00968273 0.00969465 0.00970741 0.00972037 0.00973424 0.00974826 0.00976321 0.00977826 0.00979425 0.00981025 0.00982717 0.00984401 0.00986172 0.00987925 0.00989756 0.00991559 0.00993432 0.00995265 0.00997158 0.00999 0.0100089 0.0100272 0.0100459 0.0100639 0.0100823 0.0100997 0.0101176 0.0101344 0.0101517 0.0101677 0.0101844 0.0101995 0.0102155 0.0102298 0.0102451 0.0102585 0.0102732 0.0102857 0.0102997 0.0103115 0.010325 0.010336 0.0103489 0.0103594 0.0103718 0.0103818 0.0103938 0.0104034 0.010415 0.0104244 0.0104355 0.0104447 0.0104555 0.0104646 0.0104752 0.0104842 0.0104946 0.0105033 0.0105142 0.0105214 0.00956285 0.00957138 0.00957952 0.00958734 0.00959516 0.00960289 0.00961088 0.00961892 0.00962742 0.00963607 0.00964531 0.00965475 0.0096649 0.00967525 0.00968641 0.00969776 0.00971 0.00972239 0.00973572 0.00974917 0.00976357 0.00977802 0.00979343 0.0098088 0.0098251 0.00984127 0.00985831 0.00987512 0.00989271 0.00990997 0.00992792 0.00994541 0.00996353 0.00998105 0.00999913 0.0100165 0.0100343 0.0100513 0.0100688 0.0100852 0.0101022 0.0101179 0.0101344 0.0101492 0.0101651 0.0101791 0.0101944 0.0102076 0.0102222 0.0102345 0.0102485 0.0102601 0.0102735 0.0102844 0.0102972 0.0103075 0.0103198 0.0103296 0.0103414 0.0103508 0.0103622 0.0103713 0.0103822 0.0103912 0.0104017 0.0104106 0.0104207 0.0104295 0.0104395 0.0104479 0.0104583 0.0104653 0.00956263 0.0095706 0.00957806 0.00958514 0.00959219 0.00959913 0.00960628 0.00961345 0.00962099 0.00962861 0.00963673 0.00964498 0.00965384 0.00966283 0.00967255 0.00968241 0.00969308 0.00970388 0.00971556 0.00972734 0.00974006 0.00975284 0.00976657 0.0097803 0.00979497 0.00980957 0.00982508 0.00984042 0.00985661 0.00987253 0.00988924 0.00990554 0.00992258 0.00993906 0.00995624 0.00997268 0.00998982 0.010006 0.0100229 0.0100387 0.0100553 0.0100705 0.0100866 0.0101011 0.0101167 0.0101304 0.0101455 0.0101584 0.0101728 0.0101849 0.0101988 0.0102102 0.0102235 0.0102342 0.0102469 0.010257 0.0102692 0.0102788 0.0102904 0.0102997 0.0103109 0.0103199 0.0103305 0.0103394 0.0103496 0.0103584 0.0103682 0.0103769 0.0103865 0.0103948 0.0104048 0.0104116 0.00956263 0.0095706 0.00957805 0.0095851 0.00959208 0.00959888 0.00960582 0.00961268 0.0096198 0.0096269 0.00963437 0.00964184 0.0096498 0.00965778 0.00966636 0.00967498 0.0096843 0.00969368 0.00970386 0.00971409 0.00972518 0.00973632 0.00974837 0.00976043 0.00977342 0.00978636 0.00980023 0.00981397 0.00982862 0.00984304 0.00985834 0.00987326 0.00988904 0.00990429 0.00992038 0.00993574 0.00995195 0.00996723 0.0099834 0.00999839 0.0100144 0.0100289 0.0100445 0.0100585 0.0100737 0.010087 0.0101017 0.0101143 0.0101285 0.0101404 0.010154 0.0101652 0.0101782 0.0101888 0.0102013 0.0102113 0.0102232 0.0102328 0.0102442 0.0102535 0.0102644 0.0102734 0.0102838 0.0102927 0.0103027 0.0103115 0.010321 0.0103298 0.0103391 0.0103475 0.0103571 0.010364 0.00956285 0.00957139 0.00957949 0.0095872 0.00959476 0.00960205 0.00960933 0.0096164 0.00962359 0.00963061 0.00963783 0.00964493 0.00965234 0.00965965 0.0096674 0.0096751 0.00968335 0.00969157 0.00970046 0.00970935 0.00971901 0.00972866 0.00973917 0.00974966 0.00976105 0.00977239 0.00978466 0.00979682 0.00980992 0.00982281 0.00983665 0.00985015 0.0098646 0.00987855 0.00989344 0.00990766 0.00992283 0.00993711 0.00995238 0.00996653 0.00998175 0.00999559 0.0100106 0.010024 0.0100387 0.0100515 0.0100658 0.010078 0.0100918 0.0101035 0.0101167 0.0101278 0.0101405 0.010151 0.0101632 0.0101732 0.0101849 0.0101945 0.0102057 0.010215 0.0102257 0.0102348 0.010245 0.010254 0.0102638 0.0102728 0.0102821 0.010291 0.0103002 0.0103088 0.0103183 0.0103254 0.00956334 0.00957319 0.00958271 0.00959176 0.00960048 0.00960874 0.00961677 0.00962442 0.00963197 0.0096392 0.00964645 0.00965342 0.00966054 0.00966744 0.00967461 0.00968162 0.00968904 0.00969635 0.0097042 0.00971198 0.00972042 0.00972881 0.00973798 0.00974709 0.00975706 0.00976697 0.00977779 0.0097885 0.00980016 0.00981164 0.0098241 0.00983626 0.00984941 0.00986212 0.00987584 0.00988894 0.00990306 0.00991636 0.00993072 0.00994403 0.00995845 0.00997159 0.00998593 0.00999876 0.0100129 0.0100253 0.010039 0.010051 0.0100643 0.0100757 0.0100886 0.0100995 0.0101119 0.0101224 0.0101343 0.0101443 0.0101558 0.0101655 0.0101765 0.0101859 0.0101964 0.0102058 0.0102158 0.0102251 0.0102348 0.010244 0.0102534 0.0102625 0.0102718 0.0102806 0.0102903 0.0102977 0.00956429 0.00957649 0.00958827 0.00959925 0.00960953 0.00961902 0.00962799 0.00963634 0.00964436 0.00965188 0.00965923 0.00966618 0.0096731 0.0096797 0.00968643 0.00969291 0.00969967 0.00970624 0.00971325 0.00972012 0.00972757 0.00973491 0.00974295 0.00975092 0.00975969 0.00976838 0.00977796 0.00978743 0.00979785 0.0098081 0.00981935 0.00983033 0.00984234 0.00985395 0.00986661 0.00987871 0.00989188 0.00990429 0.0099178 0.00993035 0.00994403 0.00995654 0.00997023 0.00998254 0.0099961 0.0100081 0.0100214 0.010033 0.010046 0.0100572 0.0100698 0.0100806 0.0100927 0.0101031 0.0101148 0.0101249 0.0101362 0.0101461 0.0101569 0.0101666 0.010177 0.0101866 0.0101967 0.0102062 0.010216 0.0102256 0.0102351 0.0102446 0.0102541 0.0102633 0.0102735 0.0102811 0.00956601 0.00958189 0.00959664 0.00960988 0.0096218 0.00963251 0.00964235 0.00965131 0.00965971 0.00966744 0.00967484 0.00968171 0.00968844 0.00969475 0.00970109 0.0097071 0.0097133 0.00971926 0.00972556 0.00973169 0.00973831 0.00974481 0.00975194 0.00975898 0.00976677 0.00977447 0.00978304 0.0097915 0.0098009 0.00981015 0.0098204 0.00983042 0.00984147 0.00985218 0.00986395 0.00987522 0.00988758 0.00989926 0.00991205 0.00992396 0.00993701 0.00994898 0.00996212 0.00997401 0.00998709 0.00999877 0.0100117 0.0100231 0.0100357 0.0100468 0.0100591 0.0100698 0.0100818 0.0100922 0.0101038 0.010114 0.0101252 0.0101352 0.0101461 0.010156 0.0101665 0.0101764 0.0101866 0.0101965 0.0102065 0.0102164 0.0102263 0.0102362 0.0102462 0.0102558 0.0102667 0.0102744 0.00956899 0.00958978 0.00960782 0.00962321 0.00963657 0.00964823 0.00965868 0.00966801 0.00967659 0.00968437 0.00969169 0.0096984 0.00970486 0.00971086 0.0097168 0.00972238 0.00972808 0.0097335 0.00973921 0.00974472 0.00975068 0.00975649 0.00976289 0.00976918 0.0097762 0.00978314 0.0097909 0.00979858 0.00980717 0.00981565 0.00982511 0.00983438 0.00984469 0.00985469 0.00986577 0.0098764 0.00988812 0.00989923 0.00991145 0.00992287 0.00993541 0.00994698 0.00995968 0.00997124 0.00998395 0.0099954 0.010008 0.0100192 0.0100316 0.0100426 0.0100547 0.0100655 0.0100773 0.0100878 0.0100993 0.0101097 0.0101209 0.0101312 0.0101421 0.0101523 0.010163 0.0101732 0.0101837 0.0101939 0.0102043 0.0102146 0.010225 0.0102354 0.010246 0.010256 0.0102678 0.0102755 0.00957363 0.00960001 0.00962108 0.00963817 0.00965252 0.00966475 0.00967549 0.00968494 0.0096935 0.00970115 0.00970826 0.00971471 0.00972086 0.00972651 0.00973206 0.00973723 0.00974247 0.00974743 0.00975265 0.00975765 0.00976306 0.00976832 0.00977415 0.00977987 0.00978629 0.00979264 0.00979979 0.00980688 0.00981487 0.00982276 0.00983164 0.00984035 0.0098501 0.00985959 0.00987014 0.0098803 0.00989155 0.00990225 0.00991404 0.00992511 0.00993727 0.00994855 0.00996093 0.00997227 0.00998471 0.009996 0.0100084 0.0100195 0.0100318 0.0100427 0.0100547 0.0100656 0.0100773 0.010088 0.0100995 0.01011 0.0101213 0.0101318 0.0101429 0.0101534 0.0101643 0.0101749 0.0101857 0.0101964 0.0102071 0.0102179 0.0102288 0.0102397 0.0102509 0.0102615 0.0102743 0.0102817 0.00957996 0.00961173 0.00963512 0.00965331 0.00966817 0.00968063 0.00969139 0.00970075 0.00970911 0.00971654 0.00972336 0.00972951 0.00973532 0.00974062 0.00974579 0.00975058 0.00975544 0.00976 0.0097648 0.00976938 0.00977436 0.0097792 0.00978458 0.00978988 0.00979584 0.00980175 0.00980846 0.00981511 0.00982267 0.00983014 0.00983859 0.00984691 0.00985626 0.00986538 0.00987557 0.0098854 0.00989631 0.00990672 0.00991821 0.00992904 0.00994095 0.00995203 0.00996419 0.00997539 0.00998765 0.00999886 0.0100111 0.0100222 0.0100343 0.0100454 0.0100573 0.0100682 0.01008 0.0100908 0.0101024 0.0101131 0.0101245 0.0101352 0.0101465 0.0101573 0.0101685 0.0101794 0.0101906 0.0102016 0.0102129 0.0102241 0.0102355 0.0102469 0.0102588 0.0102699 0.0102835 0.0102906 0.00958749 0.00962371 0.00964858 0.0096673 0.00968231 0.00969472 0.00970534 0.00971448 0.00972259 0.00972972 0.00973624 0.00974208 0.00974756 0.00975254 0.00975739 0.00976185 0.00976637 0.00977061 0.00977508 0.00977934 0.00978399 0.0097885 0.00979355 0.00979852 0.00980416 0.00980975 0.00981614 0.00982249 0.00982973 0.00983691 0.00984507 0.00985311 0.00986219 0.00987106 0.00988099 0.0098906 0.00990129 0.0099115 0.0099228 0.00993347 0.00994521 0.00995618 0.0099682 0.00997932 0.00999147 0.0100026 0.0100148 0.0100259 0.010038 0.0100491 0.010061 0.010072 0.0100838 0.0100948 0.0101064 0.0101174 0.0101289 0.0101399 0.0101513 0.0101624 0.0101739 0.0101851 0.0101966 0.010208 0.0102197 0.0102313 0.0102432 0.0102551 0.0102675 0.0102792 0.0102935 0.0103002 0.00959537 0.00963473 0.00966035 0.00967922 0.00969416 0.0097064 0.00971678 0.00972567 0.0097335 0.00974036 0.0097466 0.00975215 0.00975735 0.00976206 0.00976663 0.00977084 0.00977509 0.00977908 0.00978329 0.0097873 0.0097917 0.00979598 0.00980079 0.00980553 0.00981093 0.0098163 0.00982246 0.0098286 0.00983563 0.00984261 0.00985057 0.00985843 0.00986732 0.00987603 0.0098858 0.00989527 0.00990581 0.00991591 0.00992708 0.00993765 0.00994929 0.00996019 0.00997213 0.00998321 0.0099953 0.0100065 0.0100186 0.0100297 0.0100418 0.0100529 0.0100649 0.010076 0.0100879 0.0100989 0.0101107 0.0101218 0.0101335 0.0101447 0.0101563 0.0101676 0.0101793 0.0101908 0.0102026 0.0102143 0.0102263 0.0102384 0.0102506 0.010263 0.0102758 0.010288 0.0103029 0.0103091 0.00960266 0.00964393 0.00966983 0.00968865 0.00970341 0.00971544 0.00972559 0.00973423 0.00974183 0.00974845 0.00975445 0.00975977 0.00976475 0.00976924 0.00977361 0.00977761 0.00978167 0.00978546 0.00978948 0.00979332 0.00979754 0.00980165 0.00980629 0.00981087 0.00981611 0.00982133 0.00982734 0.00983334 0.00984022 0.00984708 0.00985491 0.00986265 0.00987143 0.00988003 0.0098897 0.00989908 0.00990953 0.00991955 0.00993065 0.00994117 0.00995275 0.00996361 0.00997551 0.00998657 0.00999864 0.0100098 0.0100219 0.0100331 0.0100452 0.0100564 0.0100684 0.0100796 0.0100915 0.0101027 0.0101145 0.0101257 0.0101375 0.0101489 0.0101607 0.0101722 0.010184 0.0101958 0.0102078 0.0102198 0.0102321 0.0102444 0.010257 0.0102697 0.0102829 0.0102955 0.0103108 0.0103166 0.00960868 0.00965095 0.00967687 0.00969555 0.00971013 0.00972196 0.00973192 0.00974037 0.00974777 0.00975421 0.00976003 0.00976519 0.00977 0.00977434 0.00977855 0.00978241 0.00978632 0.00978999 0.00979387 0.00979759 0.00980169 0.00980569 0.00981021 0.00981468 0.00981982 0.00982494 0.00983086 0.00983676 0.00984356 0.00985034 0.00985808 0.00986576 0.00987446 0.009883 0.00989261 0.00990193 0.00991233 0.00992232 0.00993337 0.00994386 0.00995541 0.00996625 0.00997813 0.00998919 0.0100013 0.0100124 0.0100246 0.0100358 0.0100479 0.0100591 0.0100712 0.010